<?xml version="1.0" encoding="UTF-8"?>

<!-- generated on Fri Jul 17 12:19:32 2020 by Eclipse SUMO Version v1_6_0+0553-a03471b
<configuration xmlns:xsi="http://www.w3.org/2001/XMLSchema-instance" xsi:noNamespaceSchemaLocation="http://sumo.dlr.de/xsd/sumoConfiguration.xsd">

    <input>
        <net-file value="scenario/UC5_1.net.xml"/>
        <route-files value="scenario/routes_trafficMix_0_trafficDemand_1_driverBehaviour_OS_seed_0.xml"/>
        <additional-files value="scenario/additionalsOutput_trafficMix_0_trafficDemand_1_driverBehaviour_OS_seed_0.xml,scenario/vTypesCAVToC_OS.add.xml,scenario/vTypesCVToC_OS.add.xml,scenario/vTypesLV_OS.add.xml,scenario/shapes.add.xml,scenario/view.add.xml"/>
    </input>

    <output>
        <tripinfo-output value="/home/noul_ar/workspace/tor-distribution/outputs/simulations/test4.zip_20200717-114640/tripinfo_4.xml"/>
    </output>

    <time>
        <step-length value="0.1"/>
    </time>

    <processing>
        <step-method.ballistic value="true"/>
        <ignore-route-errors value="true"/>
        <lanechange.duration value="2.5"/>
    </processing>

    <report>
        <no-step-log value="true"/>
    </report>

    <toc_device>
        <device.toc.ogNewTimeHeadway value="100"/>
        <device.toc.ogNewSpaceHeadway value="5"/>
        <device.toc.ogMaxDecel value="1"/>
        <device.toc.ogChangeRate value="1"/>
    </toc_device>

    <traci_server>
        <remote-port value="51277"/>
    </traci_server>

    <random_number>
        <seed value="1028"/>
    </random_number>

    <gui_only>
        <tracker-interval value="0.1"/>
    </gui_only>

</configuration>
-->

<tripinfos xmlns:xsi="http://www.w3.org/2001/XMLSchema-instance" xsi:noNamespaceSchemaLocation="http://sumo.dlr.de/xsd/tripinfo_file.xsd">
    <tripinfo id="CAVToC.0" depart="0.20" departLane="entry_1" departPos="199.90" departSpeed="28.35" departDelay="0.00" arrival="169.60" arrivalLane="e0_1" arrivalPos="4800.00" arrivalSpeed="28.31" duration="169.40" routeLength="4800.10" waitingTime="0.00" waitingCount="0" stopTime="0.00" timeLoss="0.08" rerouteNo="0" devices="tripinfo_CAVToC.0 routing_CAVToC.0 ssm_CAVToC.0 toc_CAVToC.0 driverstateCAVToC.0" vType="vehLVOS604" speedFactor="0.79" vaporized=""/>
    <tripinfo id="CVToC.0" depart="2.30" departLane="entry_1" departPos="182.66" departSpeed="29.18" departDelay="0.00" arrival="171.10" arrivalLane="e0_1" arrivalPos="4800.00" arrivalSpeed="31.60" duration="168.80" routeLength="4817.34" waitingTime="0.00" waitingCount="0" stopTime="0.00" timeLoss="33.68" rerouteNo="0" devices="tripinfo_CVToC.0 routing_CVToC.0 ssm_CVToC.0 toc_CVToC.0 driverstateCVToC.0" vType="vehLVOS424" speedFactor="0.99" vaporized=""/>
    <tripinfo id="CAVToC.1" depart="3.30" departLane="entry_0" departPos="199.90" departSpeed="35.90" departDelay="0.00" arrival="171.50" arrivalLane="e0_0" arrivalPos="4800.00" arrivalSpeed="31.48" duration="168.20" routeLength="4800.10" waitingTime="0.00" waitingCount="0" stopTime="0.00" timeLoss="34.50" rerouteNo="0" devices="tripinfo_CAVToC.1 routing_CAVToC.1 ssm_CAVToC.1 toc_CAVToC.1 driverstateCAVToC.1" vType="vehLVOS753" speedFactor="0.99" vaporized=""/>
    <tripinfo id="CVToC.2" depart="4.10" departLane="entry_0" departPos="165.29" departSpeed="30.10" departDelay="0.00" arrival="173.20" arrivalLane="e0_0" arrivalPos="4800.00" arrivalSpeed="30.07" duration="169.10" routeLength="4834.71" waitingTime="0.00" waitingCount="0" stopTime="0.00" timeLoss="8.48" rerouteNo="0" devices="tripinfo_CVToC.2 routing_CVToC.2 ssm_CVToC.2 toc_CVToC.2 driverstateCVToC.2" vType="vehLVOS819" speedFactor="0.83" vaporized=""/>
    <tripinfo id="CVToC.1" depart="3.00" departLane="entry_1" departPos="127.75" departSpeed="29.79" departDelay="0.00" arrival="173.40" arrivalLane="e0_1" arrivalPos="4800.00" arrivalSpeed="34.18" duration="170.40" routeLength="4872.25" waitingTime="0.00" waitingCount="0" stopTime="0.00" timeLoss="30.16" rerouteNo="0" devices="tripinfo_CVToC.1 routing_CVToC.1 ssm_CVToC.1 toc_CVToC.1 driverstateCVToC.1" vType="vehLVOS230" speedFactor="0.96" vaporized=""/>
    <tripinfo id="CAVToC.2" depart="3.40" departLane="entry_1" departPos="75.20" departSpeed="29.93" departDelay="0.00" arrival="175.10" arrivalLane="e0_1" arrivalPos="4800.00" arrivalSpeed="30.50" duration="171.70" routeLength="4924.80" waitingTime="0.00" waitingCount="0" stopTime="0.00" timeLoss="10.14" rerouteNo="0" devices="tripinfo_CAVToC.2 routing_CAVToC.2 ssm_CAVToC.2 toc_CAVToC.2 driverstateCAVToC.2" vType="vehLVOS461" speedFactor="0.84" vaporized=""/>
    <tripinfo id="CVToC.3" depart="4.50" departLane="entry_0" departPos="104.39" departSpeed="30.56" departDelay="0.00" arrival="176.10" arrivalLane="e0_0" arrivalPos="4800.00" arrivalSpeed="32.01" duration="171.60" routeLength="4895.61" waitingTime="0.00" waitingCount="0" stopTime="0.00" timeLoss="32.55" rerouteNo="0" devices="tripinfo_CVToC.3 routing_CVToC.3 ssm_CVToC.3 toc_CVToC.3 driverstateCVToC.3" vType="vehLVOS162" speedFactor="0.98" vaporized=""/>
    <tripinfo id="LV.1" depart="5.90" departLane="entry_1" departPos="30.29" departSpeed="37.34" departDelay="0.00" arrival="176.40" arrivalLane="e0_1" arrivalPos="4800.00" arrivalSpeed="32.90" duration="170.50" routeLength="4969.71" waitingTime="0.00" waitingCount="0" stopTime="0.00" timeLoss="37.36" rerouteNo="0" devices="tripinfo_LV.1 routing_LV.1 ssm_LV.1" vType="vehLVOS936" speedFactor="1.03" vaporized=""/>
    <tripinfo id="LV.0" depart="5.70" departLane="entry_0" departPos="73.24" departSpeed="35.18" departDelay="0.00" arrival="177.00" arrivalLane="e0_0" arrivalPos="4800.00" arrivalSpeed="32.90" duration="171.30" routeLength="4926.76" waitingTime="0.00" waitingCount="0" stopTime="0.00" timeLoss="31.19" rerouteNo="0" devices="tripinfo_LV.0 routing_LV.0 ssm_LV.0" vType="vehLVOS40" speedFactor="0.97" vaporized=""/>
    <tripinfo id="CVToC.5" depart="7.60" departLane="entry_1" departPos="29.58" departSpeed="29.24" departDelay="0.00" arrival="178.30" arrivalLane="e0_1" arrivalPos="4800.00" arrivalSpeed="29.21" duration="170.70" routeLength="4970.42" waitingTime="0.00" waitingCount="0" stopTime="0.00" timeLoss="0.67" rerouteNo="0" devices="tripinfo_CVToC.5 routing_CVToC.5 ssm_CVToC.5 toc_CVToC.5 driverstateCVToC.5" vType="vehLVOS424" speedFactor="0.81" vaporized=""/>
    <tripinfo id="CVToC.7" depart="9.60" departLane="entry_1" departPos="3.16" departSpeed="30.25" departDelay="0.60" arrival="179.20" arrivalLane="e0_1" arrivalPos="4800.00" arrivalSpeed="30.48" duration="169.60" routeLength="4996.84" waitingTime="0.00" waitingCount="0" stopTime="0.00" timeLoss="38.10" rerouteNo="0" devices="tripinfo_CVToC.7 routing_CVToC.7 ssm_CVToC.7 toc_CVToC.7 driverstateCVToC.7" vType="vehLVOS69" speedFactor="1.05" vaporized=""/>
    <tripinfo id="CVToC.4" depart="6.80" departLane="entry_0" departPos="39.45" departSpeed="34.61" departDelay="0.20" arrival="179.30" arrivalLane="e0_0" arrivalPos="4800.00" arrivalSpeed="27.92" duration="172.50" routeLength="4960.55" waitingTime="0.00" waitingCount="0" stopTime="0.00" timeLoss="29.88" rerouteNo="0" devices="tripinfo_CVToC.4 routing_CVToC.4 ssm_CVToC.4 toc_CVToC.4 driverstateCVToC.4" vType="vehLVOS821" speedFactor="0.96" vaporized=""/>
    <tripinfo id="CAVToC.5" depart="12.50" departLane="entry_1" departPos="3.38" departSpeed="31.08" departDelay="0.60" arrival="181.90" arrivalLane="e0_1" arrivalPos="4800.00" arrivalSpeed="34.36" duration="169.40" routeLength="4996.62" waitingTime="0.00" waitingCount="0" stopTime="0.00" timeLoss="40.36" rerouteNo="0" devices="tripinfo_CAVToC.5 routing_CAVToC.5 ssm_CAVToC.5 toc_CAVToC.5 driverstateCAVToC.5" vType="vehLVOS82" speedFactor="1.07" vaporized=""/>
    <tripinfo id="CVToC.8" depart="15.20" departLane="entry_1" departPos="6.75" departSpeed="31.57" departDelay="5.60" arrival="182.80" arrivalLane="e0_1" arrivalPos="4800.00" arrivalSpeed="34.51" duration="167.60" routeLength="4993.25" waitingTime="0.00" waitingCount="0" stopTime="0.00" timeLoss="31.77" rerouteNo="0" devices="tripinfo_CVToC.8 routing_CVToC.8 ssm_CVToC.8 toc_CVToC.8 driverstateCVToC.8" vType="vehLVOS813" speedFactor="1.02" vaporized=""/>
    <tripinfo id="CAVToC.3" depart="8.20" departLane="entry_0" departPos="6.43" departSpeed="34.52" departDelay="0.10" arrival="182.90" arrivalLane="e0_0" arrivalPos="4800.00" arrivalSpeed="32.92" duration="174.70" routeLength="4993.57" waitingTime="0.00" waitingCount="0" stopTime="0.00" timeLoss="39.37" rerouteNo="0" devices="tripinfo_CAVToC.3 routing_CAVToC.3 ssm_CAVToC.3 toc_CAVToC.3 driverstateCAVToC.3" vType="vehLVOS832" speedFactor="1.02" vaporized=""/>
    <tripinfo id="LV.3" depart="20.40" departLane="entry_1" departPos="1.89" departSpeed="42.58" departDelay="4.50" arrival="184.40" arrivalLane="e0_1" arrivalPos="4800.00" arrivalSpeed="36.44" duration="164.00" routeLength="4998.11" waitingTime="0.00" waitingCount="0" stopTime="0.00" timeLoss="46.57" rerouteNo="0" devices="tripinfo_LV.3 routing_LV.3 ssm_LV.3" vType="vehLVOS55" speedFactor="1.18" vaporized=""/>
    <tripinfo id="CAVToC.4" depart="10.60" departLane="entry_0" departPos="1.34" departSpeed="28.42" departDelay="1.50" arrival="184.70" arrivalLane="e0_0" arrivalPos="4800.00" arrivalSpeed="34.95" duration="174.10" routeLength="4998.66" waitingTime="0.00" waitingCount="0" stopTime="0.00" timeLoss="31.57" rerouteNo="0" devices="tripinfo_CAVToC.4 routing_CAVToC.4 ssm_CAVToC.4 toc_CAVToC.4 driverstateCAVToC.4" vType="vehLVOS225" speedFactor="0.97" vaporized=""/>
    <tripinfo id="LV.2" depart="13.80" departLane="entry_0" departPos="2.89" departSpeed="34.54" departDelay="1.20" arrival="185.70" arrivalLane="e0_0" arrivalPos="4800.00" arrivalSpeed="33.95" duration="171.90" routeLength="4997.11" waitingTime="0.00" waitingCount="0" stopTime="0.00" timeLoss="27.23" rerouteNo="0" devices="tripinfo_LV.2 routing_LV.2 ssm_LV.2" vType="vehLVOS870" speedFactor="0.96" vaporized=""/>
    <tripinfo id="CAVToC.6" depart="22.40" departLane="entry_1" departPos="1.20" departSpeed="36.57" departDelay="2.10" arrival="185.70" arrivalLane="e0_1" arrivalPos="4800.00" arrivalSpeed="34.01" duration="163.30" routeLength="4998.80" waitingTime="0.00" waitingCount="0" stopTime="0.00" timeLoss="37.24" rerouteNo="0" devices="tripinfo_CAVToC.6 routing_CAVToC.6 ssm_CAVToC.6 toc_CAVToC.6 driverstateCAVToC.6" vType="vehLVOS250" speedFactor="1.10" vaporized=""/>
    <tripinfo id="CVToC.9" depart="19.80" departLane="entry_0" departPos="24.27" departSpeed="29.12" departDelay="1.20" arrival="187.40" arrivalLane="e0_1" arrivalPos="4800.00" arrivalSpeed="34.19" duration="167.60" routeLength="4975.73" waitingTime="0.00" waitingCount="0" stopTime="0.00" timeLoss="23.98" rerouteNo="0" devices="tripinfo_CVToC.9 routing_CVToC.9 ssm_CVToC.9 toc_CVToC.9 driverstateCVToC.9" vType="vehLVOS41" speedFactor="0.96" vaporized=""/>
    <tripinfo id="CVToC.6" depart="16.50" departLane="entry_0" departPos="2.07" departSpeed="32.70" departDelay="8.60" arrival="188.30" arrivalLane="e0_0" arrivalPos="4800.00" arrivalSpeed="32.78" duration="171.80" routeLength="4997.93" waitingTime="0.00" waitingCount="0" stopTime="0.00" timeLoss="50.01" rerouteNo="0" devices="tripinfo_CVToC.6 routing_CVToC.6 ssm_CVToC.6 toc_CVToC.6 driverstateCVToC.6" vType="vehLVOS879" speedFactor="1.14" vaporized=""/>
    <tripinfo id="CAVToC.9" depart="27.20" departLane="entry_1" departPos="13.45" departSpeed="30.13" departDelay="0.20" arrival="188.30" arrivalLane="e0_1" arrivalPos="4800.00" arrivalSpeed="34.97" duration="161.10" routeLength="4986.55" waitingTime="0.00" waitingCount="0" stopTime="0.00" timeLoss="18.83" rerouteNo="0" devices="tripinfo_CAVToC.9 routing_CAVToC.9 ssm_CAVToC.9 toc_CAVToC.9 driverstateCAVToC.9" vType="vehLVOS159" speedFactor="0.97" vaporized=""/>
    <tripinfo id="CAVToC.7" depart="23.50" departLane="entry_0" departPos="54.60" departSpeed="29.35" departDelay="0.00" arrival="189.90" arrivalLane="e0_0" arrivalPos="4800.00" arrivalSpeed="34.31" duration="166.40" routeLength="4945.40" waitingTime="0.00" waitingCount="0" stopTime="0.00" timeLoss="28.66" rerouteNo="0" devices="tripinfo_CAVToC.7 routing_CAVToC.7 ssm_CAVToC.7 toc_CAVToC.7 driverstateCAVToC.7" vType="vehLVOS121" speedFactor="0.99" vaporized=""/>
    <tripinfo id="CAVToC.10" depart="28.10" departLane="entry_0" departPos="46.95" departSpeed="28.89" departDelay="0.60" arrival="190.70" arrivalLane="e0_1" arrivalPos="4800.00" arrivalSpeed="34.56" duration="162.60" routeLength="4953.05" waitingTime="0.00" waitingCount="0" stopTime="0.00" timeLoss="20.33" rerouteNo="0" devices="tripinfo_CAVToC.10 routing_CAVToC.10 ssm_CAVToC.10 toc_CAVToC.10 driverstateCAVToC.10" vType="vehLVOS211" speedFactor="0.96" vaporized=""/>
    <tripinfo id="CAVToC.8" depart="24.20" departLane="entry_1" departPos="3.06" departSpeed="29.45" departDelay="0.30" arrival="194.40" arrivalLane="e0_0" arrivalPos="4800.00" arrivalSpeed="29.38" duration="170.20" routeLength="4996.94" waitingTime="0.00" waitingCount="0" stopTime="0.00" timeLoss="0.45" rerouteNo="0" devices="tripinfo_CAVToC.8 routing_CAVToC.8 ssm_CAVToC.8 toc_CAVToC.8 driverstateCAVToC.8" vType="vehLVOS938" speedFactor="0.82" vaporized=""/>
    <tripinfo id="CVToC.10" depart="25.90" departLane="entry_0" departPos="61.91" departSpeed="28.10" departDelay="0.00" arrival="202.90" arrivalLane="e0_0" arrivalPos="4800.00" arrivalSpeed="28.09" duration="177.00" routeLength="4938.09" waitingTime="0.00" waitingCount="0" stopTime="0.00" timeLoss="1.18" rerouteNo="0" devices="tripinfo_CVToC.10 routing_CVToC.10 ssm_CVToC.10 toc_CVToC.10 driverstateCVToC.10" vType="vehLVOS555" speedFactor="0.78" vaporized=""/>
    <tripinfo id="CAVToC.11" depart="29.20" departLane="entry_1" departPos="13.27" departSpeed="28.00" departDelay="0.00" arrival="207.40" arrivalLane="e0_1" arrivalPos="4800.00" arrivalSpeed="27.98" duration="178.20" routeLength="4986.73" waitingTime="0.00" waitingCount="0" stopTime="0.00" timeLoss="0.07" rerouteNo="0" devices="tripinfo_CAVToC.11 routing_CAVToC.11 ssm_CAVToC.11 toc_CAVToC.11 driverstateCAVToC.11" vType="vehLVOS127" speedFactor="0.78" vaporized=""/>
    <tripinfo id="CVToC.12" depart="31.30" departLane="entry_1" departPos="0.15" departSpeed="28.56" departDelay="2.00" arrival="208.20" arrivalLane="e0_1" arrivalPos="4800.00" arrivalSpeed="29.27" duration="176.90" routeLength="4999.85" waitingTime="0.00" waitingCount="0" stopTime="0.00" timeLoss="22.81" rerouteNo="0" devices="tripinfo_CVToC.12 routing_CVToC.12 ssm_CVToC.12 toc_CVToC.12 driverstateCVToC.12" vType="vehLVOS27" speedFactor="0.90" vaporized=""/>
    <tripinfo id="CVToC.11" depart="29.50" departLane="entry_0" departPos="9.19" departSpeed="29.62" departDelay="0.90" arrival="208.60" arrivalLane="e0_0" arrivalPos="4800.00" arrivalSpeed="29.78" duration="179.10" routeLength="4990.81" waitingTime="0.00" waitingCount="0" stopTime="0.00" timeLoss="39.88" rerouteNo="0" devices="tripinfo_CVToC.11 routing_CVToC.11 ssm_CVToC.11 toc_CVToC.11 driverstateCVToC.11" vType="vehLVOS743" speedFactor="0.99" vaporized=""/>
    <tripinfo id="CVToC.13" depart="34.60" departLane="entry_1" departPos="20.61" departSpeed="29.10" departDelay="3.80" arrival="210.20" arrivalLane="e0_1" arrivalPos="4800.00" arrivalSpeed="32.94" duration="175.60" routeLength="4979.39" waitingTime="0.00" waitingCount="0" stopTime="0.00" timeLoss="30.71" rerouteNo="0" devices="tripinfo_CVToC.13 routing_CVToC.13 ssm_CVToC.13 toc_CVToC.13 driverstateCVToC.13" vType="vehLVOS582" speedFactor="0.95" vaporized=""/>
    <tripinfo id="CVToC.14" depart="32.20" departLane="entry_0" departPos="13.57" departSpeed="26.53" departDelay="0.40" arrival="210.20" arrivalLane="e0_0" arrivalPos="4800.00" arrivalSpeed="31.09" duration="178.00" routeLength="4986.43" waitingTime="0.00" waitingCount="0" stopTime="0.00" timeLoss="29.67" rerouteNo="0" devices="tripinfo_CVToC.14 routing_CVToC.14 ssm_CVToC.14 toc_CVToC.14 driverstateCVToC.14" vType="vehLVOS328" speedFactor="0.93" vaporized=""/>
    <tripinfo id="CVToC.15" depart="37.00" departLane="entry_1" departPos="3.38" departSpeed="30.13" departDelay="4.00" arrival="212.50" arrivalLane="e0_1" arrivalPos="4800.00" arrivalSpeed="35.81" duration="175.50" routeLength="4996.62" waitingTime="0.00" waitingCount="0" stopTime="0.00" timeLoss="49.06" rerouteNo="0" devices="tripinfo_CVToC.15 routing_CVToC.15 ssm_CVToC.15 toc_CVToC.15 driverstateCVToC.15" vType="vehLVOS444" speedFactor="1.09" vaporized=""/>
    <tripinfo id="CAVToC.12" depart="34.90" departLane="entry_0" departPos="2.16" departSpeed="27.25" departDelay="5.60" arrival="212.70" arrivalLane="e0_0" arrivalPos="4800.00" arrivalSpeed="35.22" duration="177.80" routeLength="4997.84" waitingTime="0.00" waitingCount="0" stopTime="0.00" timeLoss="43.77" rerouteNo="0" devices="tripinfo_CAVToC.12 routing_CAVToC.12 ssm_CAVToC.12 toc_CAVToC.12 driverstateCAVToC.12" vType="vehLVOS78" speedFactor="1.03" vaporized=""/>
    <tripinfo id="CVToC.16" depart="39.90" departLane="entry_1" departPos="5.92" departSpeed="30.79" departDelay="3.90" arrival="214.30" arrivalLane="e0_1" arrivalPos="4800.00" arrivalSpeed="32.05" duration="174.40" routeLength="4994.08" waitingTime="0.00" waitingCount="0" stopTime="0.00" timeLoss="42.09" rerouteNo="0" devices="tripinfo_CVToC.16 routing_CVToC.16 ssm_CVToC.16 toc_CVToC.16 driverstateCVToC.16" vType="vehLVOS700" speedFactor="1.05" vaporized=""/>
    <tripinfo id="LV.6" depart="37.90" departLane="entry_0" departPos="3.18" departSpeed="31.52" departDelay="2.60" arrival="214.70" arrivalLane="e0_0" arrivalPos="4800.00" arrivalSpeed="31.52" duration="176.80" routeLength="4996.82" waitingTime="0.00" waitingCount="0" stopTime="0.00" timeLoss="18.20" rerouteNo="0" devices="tripinfo_LV.6 routing_LV.6 ssm_LV.6" vType="vehLVOS286" speedFactor="0.87" vaporized=""/>
    <tripinfo id="CAVToC.13" depart="42.20" departLane="entry_1" departPos="7.27" departSpeed="30.76" departDelay="5.00" arrival="216.60" arrivalLane="e0_1" arrivalPos="4800.00" arrivalSpeed="31.52" duration="174.40" routeLength="4992.73" waitingTime="0.00" waitingCount="0" stopTime="0.00" timeLoss="16.20" rerouteNo="0" devices="tripinfo_CAVToC.13 routing_CAVToC.13 ssm_CAVToC.13 toc_CAVToC.13 driverstateCAVToC.13" vType="vehLVOS11" speedFactor="0.87" vaporized=""/>
    <tripinfo id="CVToC.17" depart="44.90" departLane="entry_1" departPos="15.28" departSpeed="31.12" departDelay="6.10" arrival="217.90" arrivalLane="e0_1" arrivalPos="4800.00" arrivalSpeed="34.59" duration="173.00" routeLength="4984.72" waitingTime="0.00" waitingCount="0" stopTime="0.00" timeLoss="34.39" rerouteNo="0" devices="tripinfo_CVToC.17 routing_CVToC.17 ssm_CVToC.17 toc_CVToC.17 driverstateCVToC.17" vType="vehLVOS292" speedFactor="1.00" vaporized=""/>
    <tripinfo id="LV.7" depart="43.90" departLane="entry_0" departPos="19.20" departSpeed="33.61" departDelay="7.70" arrival="218.20" arrivalLane="e0_0" arrivalPos="4800.00" arrivalSpeed="33.59" duration="174.30" routeLength="4980.80" waitingTime="0.00" waitingCount="0" stopTime="0.00" timeLoss="26.02" rerouteNo="0" devices="tripinfo_LV.7 routing_LV.7 ssm_LV.7" vType="vehLVOS690" speedFactor="0.93" vaporized=""/>
    <tripinfo id="CAVToC.14" depart="46.80" departLane="entry_1" departPos="2.62" departSpeed="31.22" departDelay="9.30" arrival="219.50" arrivalLane="e0_1" arrivalPos="4800.00" arrivalSpeed="32.91" duration="172.70" routeLength="4997.38" waitingTime="0.00" waitingCount="0" stopTime="0.00" timeLoss="20.85" rerouteNo="0" devices="tripinfo_CAVToC.14 routing_CAVToC.14 ssm_CAVToC.14 toc_CAVToC.14 driverstateCAVToC.14" vType="vehLVOS662" speedFactor="0.91" vaporized=""/>
    <tripinfo id="CVToC.18" depart="47.80" departLane="entry_0" departPos="56.82" departSpeed="31.07" departDelay="8.30" arrival="219.60" arrivalLane="e0_0" arrivalPos="4800.00" arrivalSpeed="32.99" duration="171.80" routeLength="4943.18" waitingTime="0.00" waitingCount="0" stopTime="0.00" timeLoss="40.86" rerouteNo="0" devices="tripinfo_CVToC.18 routing_CVToC.18 ssm_CVToC.18 toc_CVToC.18 driverstateCVToC.18" vType="vehLVOS403" speedFactor="1.05" vaporized=""/>
    <tripinfo id="CAVToC.16" depart="50.60" departLane="entry_1" departPos="38.21" departSpeed="31.66" departDelay="8.20" arrival="221.40" arrivalLane="e0_1" arrivalPos="4800.00" arrivalSpeed="33.64" duration="170.80" routeLength="4961.79" waitingTime="0.00" waitingCount="0" stopTime="0.00" timeLoss="41.11" rerouteNo="0" devices="tripinfo_CAVToC.16 routing_CAVToC.16 ssm_CAVToC.16 toc_CAVToC.16 driverstateCAVToC.16" vType="vehLVOS921" speedFactor="1.06" vaporized=""/>
    <tripinfo id="CVToC.20" depart="49.40" departLane="entry_0" departPos="22.53" departSpeed="31.57" departDelay="8.00" arrival="221.50" arrivalLane="e0_0" arrivalPos="4800.00" arrivalSpeed="33.90" duration="172.10" routeLength="4977.47" waitingTime="0.00" waitingCount="0" stopTime="0.00" timeLoss="44.59" rerouteNo="0" devices="tripinfo_CVToC.20 routing_CVToC.20 ssm_CVToC.20 toc_CVToC.20 driverstateCVToC.20" vType="vehLVOS248" speedFactor="1.08" vaporized=""/>
    <tripinfo id="CVToC.19" depart="54.50" departLane="entry_1" departPos="4.74" departSpeed="32.36" departDelay="14.80" arrival="222.70" arrivalLane="e0_1" arrivalPos="4800.00" arrivalSpeed="35.37" duration="168.20" routeLength="4995.26" waitingTime="0.00" waitingCount="0" stopTime="0.00" timeLoss="41.02" rerouteNo="0" devices="tripinfo_CVToC.19 routing_CVToC.19 ssm_CVToC.19 toc_CVToC.19 driverstateCVToC.19" vType="vehLVOS795" speedFactor="1.09" vaporized=""/>
    <tripinfo id="CVToC.21" depart="52.20" departLane="entry_0" departPos="24.89" departSpeed="31.44" departDelay="7.20" arrival="223.00" arrivalLane="e0_0" arrivalPos="4800.00" arrivalSpeed="36.12" duration="170.80" routeLength="4975.11" waitingTime="0.00" waitingCount="0" stopTime="0.00" timeLoss="37.94" rerouteNo="0" devices="tripinfo_CVToC.21 routing_CVToC.21 ssm_CVToC.21 toc_CVToC.21 driverstateCVToC.21" vType="vehLVOS236" speedFactor="1.04" vaporized=""/>
    <tripinfo id="LV.4" depart="57.70" departLane="entry_0" departPos="7.37" departSpeed="44.20" departDelay="39.30" arrival="224.10" arrivalLane="e0_1" arrivalPos="4800.00" arrivalSpeed="35.22" duration="166.40" routeLength="4992.63" waitingTime="0.00" waitingCount="0" stopTime="0.00" timeLoss="53.42" rerouteNo="0" devices="tripinfo_LV.4 routing_LV.4 ssm_LV.4" vType="vehLVOS394" speedFactor="1.22" vaporized=""/>
    <tripinfo id="CAVToC.15" depart="51.80" departLane="entry_1" departPos="4.15" departSpeed="31.78" departDelay="9.70" arrival="224.10" arrivalLane="e0_0" arrivalPos="4800.00" arrivalSpeed="32.95" duration="172.30" routeLength="4995.85" waitingTime="0.00" waitingCount="0" stopTime="0.00" timeLoss="20.76" rerouteNo="0" devices="tripinfo_CAVToC.15 routing_CAVToC.15 ssm_CAVToC.15 toc_CAVToC.15 driverstateCAVToC.15" vType="vehLVOS489" speedFactor="0.91" vaporized=""/>
    <tripinfo id="CVToC.22" depart="58.00" departLane="entry_1" departPos="29.79" departSpeed="32.84" departDelay="12.90" arrival="228.00" arrivalLane="e0_0" arrivalPos="4800.00" arrivalSpeed="39.32" duration="170.00" routeLength="4970.21" waitingTime="0.00" waitingCount="0" stopTime="0.00" timeLoss="47.00" rerouteNo="0" devices="tripinfo_CVToC.22 routing_CVToC.22 ssm_CVToC.22 toc_CVToC.22 driverstateCVToC.22" vType="vehLVOS901" speedFactor="1.12" vaporized=""/>
    <tripinfo id="CAVToC.17" depart="59.90" departLane="entry_1" departPos="12.94" departSpeed="33.04" departDelay="14.40" arrival="229.30" arrivalLane="e0_1" arrivalPos="4800.00" arrivalSpeed="36.08" duration="169.40" routeLength="4987.06" waitingTime="0.00" waitingCount="0" stopTime="0.00" timeLoss="31.13" rerouteNo="0" devices="tripinfo_CAVToC.17 routing_CAVToC.17 ssm_CAVToC.17 toc_CAVToC.17 driverstateCAVToC.17" vType="vehLVOS87" speedFactor="1.00" vaporized=""/>
    <tripinfo id="CVToC.25" depart="63.50" departLane="entry_1" departPos="47.30" departSpeed="33.34" departDelay="14.90" arrival="230.20" arrivalLane="e0_1" arrivalPos="4800.00" arrivalSpeed="36.92" duration="166.70" routeLength="4952.70" waitingTime="0.00" waitingCount="0" stopTime="0.00" timeLoss="42.46" rerouteNo="0" devices="tripinfo_CVToC.25 routing_CVToC.25 ssm_CVToC.25 toc_CVToC.25 driverstateCVToC.25" vType="vehLVOS13" speedFactor="1.10" vaporized=""/>
    <tripinfo id="CVToC.23" depart="59.80" departLane="entry_0" departPos="30.51" departSpeed="30.72" departDelay="14.60" arrival="232.50" arrivalLane="e0_0" arrivalPos="4800.00" arrivalSpeed="30.69" duration="172.70" routeLength="4969.49" waitingTime="0.00" waitingCount="0" stopTime="0.00" timeLoss="10.86" rerouteNo="0" devices="tripinfo_CVToC.23 routing_CVToC.23 ssm_CVToC.23 toc_CVToC.23 driverstateCVToC.23" vType="vehLVOS249" speedFactor="0.85" vaporized=""/>
    <tripinfo id="CAVToC.18" depart="64.80" departLane="entry_1" departPos="18.06" departSpeed="33.39" departDelay="15.30" arrival="233.90" arrivalLane="e0_1" arrivalPos="4800.00" arrivalSpeed="34.37" duration="169.10" routeLength="4981.94" waitingTime="0.00" waitingCount="0" stopTime="0.00" timeLoss="24.18" rerouteNo="0" devices="tripinfo_CAVToC.18 routing_CAVToC.18 ssm_CAVToC.18 toc_CAVToC.18 driverstateCAVToC.18" vType="vehLVOS935" speedFactor="0.95" vaporized=""/>
    <tripinfo id="CVToC.24" depart="61.30" departLane="entry_0" departPos="4.00" departSpeed="31.19" departDelay="15.20" arrival="234.20" arrivalLane="e0_0" arrivalPos="4800.00" arrivalSpeed="34.46" duration="172.90" routeLength="4996.00" waitingTime="0.00" waitingCount="0" stopTime="0.00" timeLoss="27.89" rerouteNo="0" devices="tripinfo_CVToC.24 routing_CVToC.24 ssm_CVToC.24 toc_CVToC.24 driverstateCVToC.24" vType="vehLVOS437" speedFactor="0.95" vaporized=""/>
    <tripinfo id="CVToC.28" depart="68.50" departLane="entry_1" departPos="52.65" departSpeed="31.89" departDelay="9.20" arrival="234.80" arrivalLane="e0_1" arrivalPos="4800.00" arrivalSpeed="36.14" duration="166.30" routeLength="4947.35" waitingTime="0.00" waitingCount="0" stopTime="0.00" timeLoss="30.30" rerouteNo="0" devices="tripinfo_CVToC.28 routing_CVToC.28 ssm_CVToC.28 toc_CVToC.28 driverstateCVToC.28" vType="vehLVOS725" speedFactor="1.01" vaporized=""/>
    <tripinfo id="LV.10" depart="68.50" departLane="entry_1" departPos="130.24" departSpeed="31.28" departDelay="15.30" arrival="236.30" arrivalLane="e0_0" arrivalPos="4800.00" arrivalSpeed="31.28" duration="167.80" routeLength="4869.76" waitingTime="0.00" waitingCount="0" stopTime="0.00" timeLoss="12.09" rerouteNo="0" devices="tripinfo_LV.10 routing_LV.10 ssm_LV.10" vType="vehLVOS517" speedFactor="0.87" vaporized=""/>
    <tripinfo id="CVToC.27" depart="70.50" departLane="entry_1" departPos="20.02" departSpeed="30.13" departDelay="13.50" arrival="236.50" arrivalLane="e0_1" arrivalPos="4800.00" arrivalSpeed="38.25" duration="166.00" routeLength="4979.98" waitingTime="0.00" waitingCount="0" stopTime="0.00" timeLoss="38.55" rerouteNo="0" devices="tripinfo_CVToC.27 routing_CVToC.27 ssm_CVToC.27 toc_CVToC.27 driverstateCVToC.27" vType="vehLVOS60" speedFactor="1.08" vaporized=""/>
    <tripinfo id="CAVToC.20" depart="65.20" departLane="entry_0" departPos="49.04" departSpeed="31.48" departDelay="12.80" arrival="237.50" arrivalLane="e0_0" arrivalPos="4800.00" arrivalSpeed="33.91" duration="172.30" routeLength="4950.96" waitingTime="0.00" waitingCount="0" stopTime="0.00" timeLoss="27.61" rerouteNo="0" devices="tripinfo_CAVToC.20 routing_CAVToC.20 ssm_CAVToC.20 toc_CAVToC.20 driverstateCAVToC.20" vType="vehLVOS348" speedFactor="0.95" vaporized=""/>
    <tripinfo id="CVToC.29" depart="73.00" departLane="entry_1" departPos="9.05" departSpeed="30.95" departDelay="13.60" arrival="238.40" arrivalLane="e0_1" arrivalPos="4800.00" arrivalSpeed="38.08" duration="165.40" routeLength="4990.95" waitingTime="0.00" waitingCount="0" stopTime="0.00" timeLoss="34.83" rerouteNo="0" devices="tripinfo_CVToC.29 routing_CVToC.29 ssm_CVToC.29 toc_CVToC.29 driverstateCVToC.29" vType="vehLVOS58" speedFactor="1.06" vaporized=""/>
    <tripinfo id="CAVToC.22" depart="75.90" departLane="entry_1" departPos="21.26" departSpeed="31.41" departDelay="18.80" arrival="239.40" arrivalLane="e0_1" arrivalPos="4800.00" arrivalSpeed="36.65" duration="163.50" routeLength="4978.74" waitingTime="0.00" waitingCount="0" stopTime="0.00" timeLoss="27.84" rerouteNo="0" devices="tripinfo_CAVToC.22 routing_CAVToC.22 ssm_CAVToC.22 toc_CAVToC.22 driverstateCAVToC.22" vType="vehLVOS725" speedFactor="1.02" vaporized=""/>
    <tripinfo id="CVToC.30" depart="77.60" departLane="entry_1" departPos="4.16" departSpeed="31.62" departDelay="16.00" arrival="240.60" arrivalLane="e0_1" arrivalPos="4800.00" arrivalSpeed="33.90" duration="163.00" routeLength="4995.84" waitingTime="0.00" waitingCount="0" stopTime="0.00" timeLoss="15.94" rerouteNo="0" devices="tripinfo_CVToC.30 routing_CVToC.30 ssm_CVToC.30 toc_CVToC.30 driverstateCVToC.30" vType="vehLVOS186" speedFactor="0.94" vaporized=""/>
    <tripinfo id="LV.11" depart="66.00" departLane="entry_0" departPos="33.03" departSpeed="30.23" departDelay="11.20" arrival="241.60" arrivalLane="e0_0" arrivalPos="4800.00" arrivalSpeed="30.16" duration="175.60" routeLength="4966.97" waitingTime="0.00" waitingCount="0" stopTime="0.00" timeLoss="11.31" rerouteNo="0" devices="tripinfo_LV.11 routing_LV.11 ssm_LV.11" vType="vehLVOS933" speedFactor="0.84" vaporized=""/>
    <tripinfo id="CAVToC.19" depart="68.60" departLane="entry_0" departPos="13.51" departSpeed="30.56" departDelay="18.90" arrival="242.40" arrivalLane="e0_1" arrivalPos="4800.00" arrivalSpeed="36.44" duration="173.80" routeLength="4986.49" waitingTime="0.00" waitingCount="0" stopTime="0.00" timeLoss="57.48" rerouteNo="0" devices="tripinfo_CAVToC.19 routing_CAVToC.19 ssm_CAVToC.19 toc_CAVToC.19 driverstateCAVToC.19" vType="vehLVOS153" speedFactor="1.19" vaporized=""/>