<?xml version="1.0" encoding="UTF-8"?>

<!-- generated on Mon Jul 27 11:12:14 2020 by Eclipse SUMO Version v1_6_0+0553-a03471b
<configuration xmlns:xsi="http://www.w3.org/2001/XMLSchema-instance" xsi:noNamespaceSchemaLocation="http://sumo.dlr.de/xsd/sumoConfiguration.xsd">

    <input>
        <net-file value="scenario/UC5_1.net.xml"/>
        <route-files value="scenario/routes_trafficMix_0_trafficDemand_1_driverBehaviour_OS_seed_0.xml"/>
        <additional-files value="scenario/additionalsOutput_trafficMix_0_trafficDemand_1_driverBehaviour_OS_seed_0.xml,scenario/vTypesCAVToC_OS.add.xml,scenario/vTypesCVToC_OS.add.xml,scenario/vTypesLV_OS.add.xml,scenario/shapes.add.xml,scenario/view.add.xml"/>
    </input>

    <output>
        <tripinfo-output value="/home/noul_ar/workspace/tor-distribution/outputs/simulations/bad_test_2.zip_20200727-100032/tripinfo_7.xml"/>
    </output>

    <time>
        <step-length value="0.1"/>
    </time>

    <processing>
        <step-method.ballistic value="true"/>
        <ignore-route-errors value="true"/>
        <lanechange.duration value="2.5"/>
    </processing>

    <report>
        <no-step-log value="true"/>
    </report>

    <toc_device>
        <device.toc.ogNewTimeHeadway value="100"/>
        <device.toc.ogNewSpaceHeadway value="5"/>
        <device.toc.ogMaxDecel value="1"/>
        <device.toc.ogChangeRate value="1"/>
    </toc_device>

    <traci_server>
        <remote-port value="36603"/>
    </traci_server>

    <random_number>
        <seed value="1031"/>
    </random_number>

    <gui_only>
        <tracker-interval value="0.1"/>
    </gui_only>

</configuration>
-->

<tripinfos xmlns:xsi="http://www.w3.org/2001/XMLSchema-instance" xsi:noNamespaceSchemaLocation="http://sumo.dlr.de/xsd/tripinfo_file.xsd">
    <tripinfo id="CAVToC.0" depart="4.10" departLane="entry_1" departPos="199.90" departSpeed="36.35" departDelay="0.00" arrival="133.50" arrivalLane="e0_0" arrivalPos="4800.00" arrivalSpeed="37.37" duration="129.40" routeLength="4800.10" waitingTime="0.00" waitingCount="0" stopTime="0.00" timeLoss="0.91" rerouteNo="0" devices="tripinfo_CAVToC.0 routing_CAVToC.0 ssm_CAVToC.0 toc_CAVToC.0 driverstateCAVToC.0" vType="vehLVOS670" speedFactor="1.03" vaporized=""/>
    <tripinfo id="CAVToC.1" depart="5.90" departLane="entry_0" departPos="199.90" departSpeed="36.34" departDelay="0.00" arrival="134.80" arrivalLane="e0_1" arrivalPos="4800.00" arrivalSpeed="37.69" duration="128.90" routeLength="4800.10" waitingTime="0.00" waitingCount="0" stopTime="0.00" timeLoss="1.55" rerouteNo="0" devices="tripinfo_CAVToC.1 routing_CAVToC.1 ssm_CAVToC.1 toc_CAVToC.1 driverstateCAVToC.1" vType="vehLVOS926" speedFactor="1.04" vaporized=""/>
    <tripinfo id="LV.0" depart="0.00" departLane="entry_1" departPos="199.90" departSpeed="35.48" departDelay="0.00" arrival="135.40" arrivalLane="e0_0" arrivalPos="4800.00" arrivalSpeed="35.45" duration="135.40" routeLength="4800.10" waitingTime="0.00" waitingCount="0" stopTime="0.00" timeLoss="0.07" rerouteNo="0" devices="tripinfo_LV.0 routing_LV.0 ssm_LV.0" vType="vehLVOS721" speedFactor="0.98" vaporized=""/>
    <tripinfo id="CVToC.0" depart="1.40" departLane="entry_0" departPos="199.90" departSpeed="38.84" departDelay="0.00" arrival="136.80" arrivalLane="e0_1" arrivalPos="4800.00" arrivalSpeed="38.71" duration="135.40" routeLength="4800.10" waitingTime="0.00" waitingCount="0" stopTime="0.00" timeLoss="11.75" rerouteNo="0" devices="tripinfo_CVToC.0 routing_CVToC.0 ssm_CVToC.0 toc_CVToC.0 driverstateCVToC.0" vType="vehLVOS781" speedFactor="1.08" vaporized=""/>
    <tripinfo id="LV.2" depart="9.00" departLane="entry_1" departPos="29.08" departSpeed="38.69" departDelay="0.00" arrival="146.20" arrivalLane="e0_0" arrivalPos="4800.00" arrivalSpeed="38.67" duration="137.20" routeLength="4970.92" waitingTime="0.00" waitingCount="0" stopTime="0.00" timeLoss="8.71" rerouteNo="0" devices="tripinfo_LV.2 routing_LV.2 ssm_LV.2" vType="vehLVOS492" speedFactor="1.07" vaporized=""/>
    <tripinfo id="CVToC.3" depart="13.80" departLane="entry_0" departPos="146.71" departSpeed="31.95" departDelay="0.00" arrival="156.90" arrivalLane="e0_1" arrivalPos="4800.00" arrivalSpeed="37.69" duration="143.10" routeLength="4853.29" waitingTime="0.00" waitingCount="0" stopTime="0.00" timeLoss="14.31" rerouteNo="0" devices="tripinfo_CVToC.3 routing_CVToC.3 ssm_CVToC.3 toc_CVToC.3 driverstateCVToC.3" vType="vehLVOS30" speedFactor="1.04" vaporized=""/>
    <tripinfo id="LV.1" depart="7.00" departLane="entry_0" departPos="73.86" departSpeed="33.65" departDelay="0.00" arrival="157.60" arrivalLane="e0_0" arrivalPos="4800.00" arrivalSpeed="33.64" duration="150.60" routeLength="4926.14" waitingTime="0.00" waitingCount="0" stopTime="0.00" timeLoss="4.12" rerouteNo="0" devices="tripinfo_LV.1 routing_LV.1 ssm_LV.1" vType="vehLVOS647" speedFactor="0.93" vaporized=""/>
    <tripinfo id="CAVToC.3" depart="12.40" departLane="entry_1" departPos="84.12" departSpeed="34.62" departDelay="0.00" arrival="160.60" arrivalLane="e0_0" arrivalPos="4800.00" arrivalSpeed="34.60" duration="148.20" routeLength="4915.88" waitingTime="0.00" waitingCount="0" stopTime="0.00" timeLoss="6.16" rerouteNo="0" devices="tripinfo_CAVToC.3 routing_CAVToC.3 ssm_CAVToC.3 toc_CAVToC.3 driverstateCAVToC.3" vType="vehLVOS934" speedFactor="0.96" vaporized=""/>
    <tripinfo id="CAVToC.4" depart="13.80" departLane="entry_1" departPos="59.87" departSpeed="33.23" departDelay="0.00" arrival="168.10" arrivalLane="e0_0" arrivalPos="4800.00" arrivalSpeed="33.05" duration="154.30" routeLength="4940.13" waitingTime="0.00" waitingCount="0" stopTime="0.00" timeLoss="5.57" rerouteNo="0" devices="tripinfo_CAVToC.4 routing_CAVToC.4 ssm_CAVToC.4 toc_CAVToC.4 driverstateCAVToC.4" vType="vehLVOS192" speedFactor="0.92" vaporized=""/>
    <tripinfo id="CAVToC.5" depart="15.30" departLane="entry_1" departPos="41.63" departSpeed="33.34" departDelay="0.30" arrival="169.40" arrivalLane="e0_1" arrivalPos="4800.00" arrivalSpeed="33.29" duration="154.10" routeLength="4958.37" waitingTime="0.00" waitingCount="0" stopTime="0.00" timeLoss="5.35" rerouteNo="0" devices="tripinfo_CAVToC.5 routing_CAVToC.5 ssm_CAVToC.5 toc_CAVToC.5 driverstateCAVToC.5" vType="vehLVOS171" speedFactor="0.92" vaporized=""/>
    <tripinfo id="LV.4" depart="14.50" departLane="entry_0" departPos="17.35" departSpeed="35.74" departDelay="0.10" arrival="171.50" arrivalLane="e0_1" arrivalPos="4800.00" arrivalSpeed="35.60" duration="157.00" routeLength="4982.65" waitingTime="0.00" waitingCount="0" stopTime="0.00" timeLoss="17.54" rerouteNo="0" devices="tripinfo_LV.4 routing_LV.4 ssm_LV.4" vType="vehLVOS294" speedFactor="0.99" vaporized=""/>
    <tripinfo id="CVToC.6" depart="16.70" departLane="entry_1" departPos="6.08" departSpeed="33.81" departDelay="1.10" arrival="172.80" arrivalLane="e0_1" arrivalPos="4800.00" arrivalSpeed="37.36" duration="156.10" routeLength="4993.92" waitingTime="0.00" waitingCount="0" stopTime="0.00" timeLoss="23.04" rerouteNo="0" devices="tripinfo_CVToC.6 routing_CVToC.6 ssm_CVToC.6 toc_CVToC.6 driverstateCVToC.6" vType="vehLVOS404" speedFactor="1.04" vaporized=""/>
    <tripinfo id="CVToC.8" depart="19.10" departLane="entry_1" departPos="7.37" departSpeed="34.07" departDelay="0.30" arrival="173.00" arrivalLane="e0_0" arrivalPos="4800.00" arrivalSpeed="36.48" duration="153.90" routeLength="4992.63" waitingTime="0.00" waitingCount="0" stopTime="0.00" timeLoss="17.03" rerouteNo="0" devices="tripinfo_CVToC.8 routing_CVToC.8 ssm_CVToC.8 toc_CVToC.8 driverstateCVToC.8" vType="vehLVOS625" speedFactor="1.01" vaporized=""/>
    <tripinfo id="CVToC.7" depart="21.70" departLane="entry_1" departPos="15.13" departSpeed="34.46" departDelay="4.20" arrival="176.10" arrivalLane="e0_1" arrivalPos="4800.00" arrivalSpeed="38.32" duration="154.40" routeLength="4984.87" waitingTime="0.00" waitingCount="0" stopTime="0.00" timeLoss="24.49" rerouteNo="0" devices="tripinfo_CVToC.7 routing_CVToC.7 ssm_CVToC.7 toc_CVToC.7 driverstateCVToC.7" vType="vehLVOS50" speedFactor="1.06" vaporized=""/>
    <tripinfo id="CVToC.5" depart="19.70" departLane="entry_0" departPos="1.49" departSpeed="34.63" departDelay="4.50" arrival="177.10" arrivalLane="e0_1" arrivalPos="4800.00" arrivalSpeed="39.52" duration="157.40" routeLength="4998.51" waitingTime="0.00" waitingCount="0" stopTime="0.00" timeLoss="40.08" rerouteNo="0" devices="tripinfo_CVToC.5 routing_CVToC.5 ssm_CVToC.5 toc_CVToC.5 driverstateCVToC.5" vType="vehLVOS423" speedFactor="1.18" vaporized=""/>
    <tripinfo id="CAVToC.7" depart="23.60" departLane="entry_1" departPos="2.02" departSpeed="34.60" departDelay="0.30" arrival="179.20" arrivalLane="e0_0" arrivalPos="4800.00" arrivalSpeed="36.16" duration="155.60" routeLength="4997.98" waitingTime="0.00" waitingCount="0" stopTime="0.00" timeLoss="17.60" rerouteNo="0" devices="tripinfo_CAVToC.7 routing_CAVToC.7 ssm_CAVToC.7 toc_CAVToC.7 driverstateCAVToC.7" vType="vehLVOS225" speedFactor="1.00" vaporized=""/>
    <tripinfo id="CAVToC.9" depart="28.90" departLane="entry_1" departPos="14.84" departSpeed="34.43" departDelay="0.70" arrival="180.10" arrivalLane="e0_1" arrivalPos="4800.00" arrivalSpeed="41.88" duration="151.20" routeLength="4985.16" waitingTime="0.00" waitingCount="0" stopTime="0.00" timeLoss="32.33" rerouteNo="0" devices="tripinfo_CAVToC.9 routing_CAVToC.9 ssm_CAVToC.9 toc_CAVToC.9 driverstateCAVToC.9" vType="vehLVOS85" speedFactor="1.16" vaporized=""/>
    <tripinfo id="LV.5" depart="29.40" departLane="entry_1" departPos="6.68" departSpeed="34.05" departDelay="0.00" arrival="183.30" arrivalLane="e0_1" arrivalPos="4800.00" arrivalSpeed="33.96" duration="153.90" routeLength="4993.32" waitingTime="0.00" waitingCount="0" stopTime="0.00" timeLoss="7.21" rerouteNo="0" devices="tripinfo_LV.5 routing_LV.5 ssm_LV.5" vType="vehLVOS624" speedFactor="0.94" vaporized=""/>
    <tripinfo id="CAVToC.2" depart="6.10" departLane="entry_1" departPos="199.90" departSpeed="27.15" departDelay="0.00" arrival="183.70" arrivalLane="e0_0" arrivalPos="4800.00" arrivalSpeed="26.95" duration="177.60" routeLength="4800.10" waitingTime="0.00" waitingCount="0" stopTime="0.00" timeLoss="0.76" rerouteNo="0" devices="tripinfo_CAVToC.2 routing_CAVToC.2 ssm_CAVToC.2 toc_CAVToC.2 driverstateCAVToC.2" vType="vehLVOS38" speedFactor="0.75" vaporized=""/>
    <tripinfo id="CVToC.9" depart="24.30" departLane="entry_0" departPos="0.53" departSpeed="32.14" departDelay="0.00" arrival="184.50" arrivalLane="e0_1" arrivalPos="4800.00" arrivalSpeed="35.41" duration="160.20" routeLength="4999.47" waitingTime="0.00" waitingCount="0" stopTime="0.00" timeLoss="37.25" rerouteNo="0" devices="tripinfo_CVToC.9 routing_CVToC.9 ssm_CVToC.9 toc_CVToC.9 driverstateCVToC.9" vType="vehLVOS774" speedFactor="1.13" vaporized=""/>
    <tripinfo id="CVToC.1" depart="6.30" departLane="entry_0" departPos="135.48" departSpeed="36.36" departDelay="0.00" arrival="185.00" arrivalLane="e0_0" arrivalPos="4800.00" arrivalSpeed="28.79" duration="178.70" routeLength="4864.52" waitingTime="0.00" waitingCount="0" stopTime="0.00" timeLoss="46.19" rerouteNo="0" devices="tripinfo_CVToC.1 routing_CVToC.1 ssm_CVToC.1 toc_CVToC.1 driverstateCVToC.1" vType="vehLVOS882" speedFactor="1.02" vaporized=""/>
    <tripinfo id="LV.3" depart="17.20" departLane="entry_0" departPos="1.35" departSpeed="38.54" departDelay="3.00" arrival="186.40" arrivalLane="e0_1" arrivalPos="4800.00" arrivalSpeed="35.56" duration="169.20" routeLength="4998.65" waitingTime="0.00" waitingCount="0" stopTime="0.00" timeLoss="39.52" rerouteNo="0" devices="tripinfo_LV.3 routing_LV.3 ssm_LV.3" vType="vehLVOS700" speedFactor="1.07" vaporized=""/>
    <tripinfo id="CVToC.2" depart="13.00" departLane="entry_0" departPos="199.90" departSpeed="33.89" departDelay="0.00" arrival="187.10" arrivalLane="e0_0" arrivalPos="4800.00" arrivalSpeed="32.52" duration="174.10" routeLength="4800.10" waitingTime="0.00" waitingCount="0" stopTime="0.00" timeLoss="32.44" rerouteNo="0" devices="tripinfo_CVToC.2 routing_CVToC.2 ssm_CVToC.2 toc_CVToC.2 driverstateCVToC.2" vType="vehLVOS190" speedFactor="0.94" vaporized=""/>
    <tripinfo id="CVToC.4" depart="14.10" departLane="entry_0" departPos="80.86" departSpeed="32.19" departDelay="0.10" arrival="188.00" arrivalLane="e0_0" arrivalPos="4800.00" arrivalSpeed="33.19" duration="173.90" routeLength="4919.14" waitingTime="0.00" waitingCount="0" stopTime="0.00" timeLoss="28.55" rerouteNo="0" devices="tripinfo_CVToC.4 routing_CVToC.4 ssm_CVToC.4 toc_CVToC.4 driverstateCVToC.4" vType="vehLVOS721" speedFactor="0.94" vaporized=""/>
    <tripinfo id="CAVToC.6" depart="22.60" departLane="entry_0" departPos="32.18" departSpeed="31.10" departDelay="0.00" arrival="189.60" arrivalLane="e0_1" arrivalPos="4800.00" arrivalSpeed="31.09" duration="167.00" routeLength="4967.82" waitingTime="0.00" waitingCount="0" stopTime="0.00" timeLoss="7.24" rerouteNo="0" devices="tripinfo_CAVToC.6 routing_CAVToC.6 ssm_CAVToC.6 toc_CAVToC.6 driverstateCAVToC.6" vType="vehLVOS945" speedFactor="0.86" vaporized=""/>
    <tripinfo id="CAVToC.8" depart="26.50" departLane="entry_1" departPos="28.11" departSpeed="33.44" departDelay="0.00" arrival="190.80" arrivalLane="e0_0" arrivalPos="4800.00" arrivalSpeed="33.42" duration="164.30" routeLength="4971.89" waitingTime="0.00" waitingCount="0" stopTime="0.00" timeLoss="15.61" rerouteNo="0" devices="tripinfo_CAVToC.8 routing_CAVToC.8 ssm_CAVToC.8 toc_CAVToC.8 driverstateCAVToC.8" vType="vehLVOS172" speedFactor="0.93" vaporized=""/>
    <tripinfo id="CAVToC.12" depart="33.30" departLane="entry_1" departPos="73.80" departSpeed="30.21" departDelay="0.00" arrival="199.30" arrivalLane="e0_0" arrivalPos="4800.00" arrivalSpeed="30.13" duration="166.00" routeLength="4926.20" waitingTime="0.00" waitingCount="0" stopTime="0.00" timeLoss="2.84" rerouteNo="0" devices="tripinfo_CAVToC.12 routing_CAVToC.12 ssm_CAVToC.12 toc_CAVToC.12 driverstateCAVToC.12" vType="vehLVOS234" speedFactor="0.84" vaporized=""/>
    <tripinfo id="LV.6" depart="36.50" departLane="entry_1" departPos="1.96" departSpeed="31.07" departDelay="2.00" arrival="201.40" arrivalLane="e0_1" arrivalPos="4800.00" arrivalSpeed="31.03" duration="164.90" routeLength="4998.04" waitingTime="0.00" waitingCount="0" stopTime="0.00" timeLoss="4.02" rerouteNo="0" devices="tripinfo_LV.6 routing_LV.6 ssm_LV.6" vType="vehLVOS428" speedFactor="0.86" vaporized=""/>
    <tripinfo id="CAVToC.10" depart="28.40" departLane="entry_0" departPos="53.34" departSpeed="32.50" departDelay="0.00" arrival="202.50" arrivalLane="e0_1" arrivalPos="4800.00" arrivalSpeed="32.00" duration="174.10" routeLength="4946.66" waitingTime="0.00" waitingCount="0" stopTime="0.00" timeLoss="39.27" rerouteNo="0" devices="tripinfo_CAVToC.10 routing_CAVToC.10 ssm_CAVToC.10 toc_CAVToC.10 driverstateCAVToC.10" vType="vehLVOS276" speedFactor="1.02" vaporized=""/>
    <tripinfo id="LV.7" depart="44.00" departLane="entry_1" departPos="2.36" departSpeed="40.24" departDelay="3.90" arrival="203.70" arrivalLane="e0_1" arrivalPos="4800.00" arrivalSpeed="33.91" duration="159.70" routeLength="4997.64" waitingTime="0.00" waitingCount="0" stopTime="0.00" timeLoss="35.50" rerouteNo="0" devices="tripinfo_LV.7 routing_LV.7 ssm_LV.7" vType="vehLVOS316" speedFactor="1.11" vaporized=""/>
    <tripinfo id="CAVToC.14" depart="38.70" departLane="entry_1" departPos="2.54" departSpeed="30.76" departDelay="0.90" arrival="204.60" arrivalLane="e0_0" arrivalPos="4800.00" arrivalSpeed="31.16" duration="165.90" routeLength="4997.46" waitingTime="0.00" waitingCount="0" stopTime="0.00" timeLoss="5.84" rerouteNo="0" devices="tripinfo_CAVToC.14 routing_CAVToC.14 ssm_CAVToC.14 toc_CAVToC.14 driverstateCAVToC.14" vType="vehLVOS286" speedFactor="0.86" vaporized=""/>
    <tripinfo id="CVToC.14" depart="46.90" departLane="entry_1" departPos="30.02" departSpeed="36.74" departDelay="0.30" arrival="206.00" arrivalLane="e0_1" arrivalPos="4800.00" arrivalSpeed="35.65" duration="159.10" routeLength="4969.98" waitingTime="0.00" waitingCount="0" stopTime="0.00" timeLoss="37.60" rerouteNo="0" devices="tripinfo_CVToC.14 routing_CVToC.14 ssm_CVToC.14 toc_CVToC.14 driverstateCVToC.14" vType="vehLVOS345" speedFactor="1.13" vaporized=""/>
    <tripinfo id="CAVToC.13" depart="34.10" departLane="entry_1" departPos="33.90" departSpeed="28.65" departDelay="0.00" arrival="208.60" arrivalLane="e0_0" arrivalPos="4800.00" arrivalSpeed="28.63" duration="174.50" routeLength="4966.10" waitingTime="0.00" waitingCount="0" stopTime="0.00" timeLoss="1.15" rerouteNo="0" devices="tripinfo_CAVToC.13 routing_CAVToC.13 ssm_CAVToC.13 toc_CAVToC.13 driverstateCAVToC.13" vType="vehLVOS893" speedFactor="0.79" vaporized=""/>
    <tripinfo id="CVToC.15" depart="48.20" departLane="entry_1" departPos="9.40" departSpeed="31.22" departDelay="0.20" arrival="210.00" arrivalLane="e0_1" arrivalPos="4800.00" arrivalSpeed="31.19" duration="161.80" routeLength="4990.60" waitingTime="0.00" waitingCount="0" stopTime="0.00" timeLoss="1.94" rerouteNo="0" devices="tripinfo_CVToC.15 routing_CVToC.15 ssm_CVToC.15 toc_CVToC.15 driverstateCVToC.15" vType="vehLVOS419" speedFactor="0.86" vaporized=""/>
    <tripinfo id="CAVToC.11" depart="30.30" departLane="entry_0" departPos="34.91" departSpeed="32.84" departDelay="0.00" arrival="210.70" arrivalLane="e0_0" arrivalPos="4800.00" arrivalSpeed="31.41" duration="180.40" routeLength="4965.09" waitingTime="0.00" waitingCount="0" stopTime="0.00" timeLoss="42.74" rerouteNo="0" devices="tripinfo_CAVToC.11 routing_CAVToC.11 ssm_CAVToC.11 toc_CAVToC.11 driverstateCAVToC.11" vType="vehLVOS401" speedFactor="1.00" vaporized=""/>
    <tripinfo id="CVToC.10" depart="33.60" departLane="entry_0" departPos="53.26" departSpeed="33.00" departDelay="0.00" arrival="211.50" arrivalLane="e0_0" arrivalPos="4800.00" arrivalSpeed="30.49" duration="177.90" routeLength="4946.74" waitingTime="0.00" waitingCount="0" stopTime="0.00" timeLoss="56.11" rerouteNo="0" devices="tripinfo_CVToC.10 routing_CVToC.10 ssm_CVToC.10 toc_CVToC.10 driverstateCVToC.10" vType="vehLVOS216" speedFactor="1.12" vaporized=""/>
    <tripinfo id="LV.10" depart="49.50" departLane="entry_0" departPos="54.81" departSpeed="32.37" departDelay="0.20" arrival="211.80" arrivalLane="e0_1" arrivalPos="4800.00" arrivalSpeed="32.37" duration="162.30" routeLength="4945.19" waitingTime="0.00" waitingCount="0" stopTime="0.00" timeLoss="9.48" rerouteNo="0" devices="tripinfo_LV.10 routing_LV.10 ssm_LV.10" vType="vehLVOS713" speedFactor="0.90" vaporized=""/>
    <tripinfo id="CVToC.11" depart="36.10" departLane="entry_0" departPos="39.00" departSpeed="28.78" departDelay="1.60" arrival="213.00" arrivalLane="e0_0" arrivalPos="4800.00" arrivalSpeed="31.64" duration="176.90" routeLength="4961.00" waitingTime="0.00" waitingCount="0" stopTime="0.00" timeLoss="51.25" rerouteNo="0" devices="tripinfo_CVToC.11 routing_CVToC.11 ssm_CVToC.11 toc_CVToC.11 driverstateCVToC.11" vType="vehLVOS897" speedFactor="1.09" vaporized=""/>
    <tripinfo id="LV.9" depart="47.70" departLane="entry_0" departPos="15.81" departSpeed="34.02" departDelay="0.00" arrival="214.20" arrivalLane="e0_1" arrivalPos="4800.00" arrivalSpeed="33.92" duration="166.50" routeLength="4984.19" waitingTime="0.00" waitingCount="0" stopTime="0.00" timeLoss="19.95" rerouteNo="0" devices="tripinfo_LV.9 routing_LV.9 ssm_LV.9" vType="vehLVOS571" speedFactor="0.94" vaporized=""/>
    <tripinfo id="CVToC.12" depart="37.70" departLane="entry_0" departPos="10.63" departSpeed="27.76" departDelay="0.40" arrival="214.40" arrivalLane="e0_0" arrivalPos="4800.00" arrivalSpeed="31.58" duration="176.70" routeLength="4989.37" waitingTime="0.00" waitingCount="0" stopTime="0.00" timeLoss="34.65" rerouteNo="0" devices="tripinfo_CVToC.12 routing_CVToC.12 ssm_CVToC.12 toc_CVToC.12 driverstateCVToC.12" vType="vehLVOS353" speedFactor="0.97" vaporized=""/>
    <tripinfo id="LV.11" depart="51.40" departLane="entry_0" departPos="38.95" departSpeed="35.07" departDelay="0.00" arrival="215.10" arrivalLane="e0_1" arrivalPos="4800.00" arrivalSpeed="35.05" duration="163.70" routeLength="4961.05" waitingTime="0.00" waitingCount="0" stopTime="0.00" timeLoss="22.22" rerouteNo="0" devices="tripinfo_LV.11 routing_LV.11 ssm_LV.11" vType="vehLVOS864" speedFactor="0.97" vaporized=""/>
    <tripinfo id="CVToC.13" depart="40.50" departLane="entry_0" departPos="4.36" departSpeed="28.08" departDelay="1.30" arrival="215.50" arrivalLane="e0_0" arrivalPos="4800.00" arrivalSpeed="32.63" duration="175.00" routeLength="4995.64" waitingTime="0.00" waitingCount="0" stopTime="0.00" timeLoss="44.14" rerouteNo="0" devices="tripinfo_CVToC.13 routing_CVToC.13 ssm_CVToC.13 toc_CVToC.13 driverstateCVToC.13" vType="vehLVOS624" speedFactor="1.06" vaporized=""/>
    <tripinfo id="CAVToC.15" depart="51.70" departLane="entry_1" departPos="27.60" departSpeed="32.29" departDelay="0.10" arrival="217.20" arrivalLane="e0_1" arrivalPos="4800.00" arrivalSpeed="39.17" duration="165.50" routeLength="4972.40" waitingTime="0.00" waitingCount="0" stopTime="0.00" timeLoss="42.41" rerouteNo="0" devices="tripinfo_CAVToC.15 routing_CAVToC.15 ssm_CAVToC.15 toc_CAVToC.15 driverstateCAVToC.15" vType="vehLVOS745" speedFactor="1.12" vaporized=""/>
    <tripinfo id="LV.8" depart="47.20" departLane="entry_0" departPos="3.19" departSpeed="40.88" departDelay="2.90" arrival="218.30" arrivalLane="e0_1" arrivalPos="4800.00" arrivalSpeed="35.41" duration="171.10" routeLength="4996.81" waitingTime="0.00" waitingCount="0" stopTime="0.00" timeLoss="48.83" rerouteNo="0" devices="tripinfo_LV.8 routing_LV.8 ssm_LV.8" vType="vehLVOS619" speedFactor="1.13" vaporized=""/>
    <tripinfo id="CVToC.17" depart="53.90" departLane="entry_0" departPos="53.74" departSpeed="34.18" departDelay="0.00" arrival="220.00" arrivalLane="e0_0" arrivalPos="4800.00" arrivalSpeed="34.38" duration="166.10" routeLength="4946.26" waitingTime="0.00" waitingCount="0" stopTime="0.00" timeLoss="22.26" rerouteNo="0" devices="tripinfo_CVToC.17 routing_CVToC.17 ssm_CVToC.17 toc_CVToC.17 driverstateCVToC.17" vType="vehLVOS52" speedFactor="0.95" vaporized=""/>
    <tripinfo id="CVToC.16" depart="53.60" departLane="entry_1" departPos="10.69" departSpeed="32.59" departDelay="0.00" arrival="221.30" arrivalLane="e0_1" arrivalPos="4800.00" arrivalSpeed="35.25" duration="167.70" routeLength="4989.31" waitingTime="0.00" waitingCount="0" stopTime="0.00" timeLoss="26.16" rerouteNo="0" devices="tripinfo_CVToC.16 routing_CVToC.16 ssm_CVToC.16 toc_CVToC.16 driverstateCVToC.16" vType="vehLVOS615" speedFactor="0.98" vaporized=""/>
    <tripinfo id="LV.12" depart="55.70" departLane="entry_0" departPos="6.11" departSpeed="39.65" departDelay="0.90" arrival="222.20" arrivalLane="e0_0" arrivalPos="4800.00" arrivalSpeed="36.58" duration="166.50" routeLength="4993.89" waitingTime="0.00" waitingCount="0" stopTime="0.00" timeLoss="40.54" rerouteNo="0" devices="tripinfo_LV.12 routing_LV.12 ssm_LV.12" vType="vehLVOS165" speedFactor="1.10" vaporized=""/>
    <tripinfo id="CAVToC.16" depart="56.70" departLane="entry_1" departPos="24.88" departSpeed="33.26" departDelay="0.30" arrival="222.90" arrivalLane="e0_1" arrivalPos="4800.00" arrivalSpeed="38.10" duration="166.20" routeLength="4975.12" waitingTime="0.00" waitingCount="0" stopTime="0.00" timeLoss="42.40" rerouteNo="0" devices="tripinfo_CAVToC.16 routing_CAVToC.16 ssm_CAVToC.16 toc_CAVToC.16 driverstateCAVToC.16" vType="vehLVOS790" speedFactor="1.11" vaporized=""/>
    <tripinfo id="LV.13" depart="56.30" departLane="entry_0" departPos="17.39" departSpeed="33.19" departDelay="0.00" arrival="224.00" arrivalLane="e0_0" arrivalPos="4800.00" arrivalSpeed="33.19" duration="167.70" routeLength="4982.61" waitingTime="0.00" waitingCount="0" stopTime="0.00" timeLoss="17.50" rerouteNo="0" devices="tripinfo_LV.13 routing_LV.13 ssm_LV.13" vType="vehLVOS883" speedFactor="0.92" vaporized=""/>
    <tripinfo id="CAVToC.17" depart="58.40" departLane="entry_1" departPos="2.48" departSpeed="33.74" departDelay="0.00" arrival="224.30" arrivalLane="e0_1" arrivalPos="4800.00" arrivalSpeed="38.43" duration="165.90" routeLength="4997.52" waitingTime="0.00" waitingCount="0" stopTime="0.00" timeLoss="35.82" rerouteNo="0" devices="tripinfo_CAVToC.17 routing_CAVToC.17 ssm_CAVToC.17 toc_CAVToC.17 driverstateCAVToC.17" vType="vehLVOS533" speedFactor="1.06" vaporized=""/>
    <tripinfo id="CAVToC.18" depart="60.60" departLane="entry_1" departPos="10.25" departSpeed="30.21" departDelay="0.40" arrival="230.80" arrivalLane="e0_1" arrivalPos="4800.00" arrivalSpeed="30.02" duration="170.20" routeLength="4989.75" waitingTime="0.00" waitingCount="0" stopTime="0.00" timeLoss="5.01" rerouteNo="0" devices="tripinfo_CAVToC.18 routing_CAVToC.18 ssm_CAVToC.18 toc_CAVToC.18 driverstateCAVToC.18" vType="vehLVOS170" speedFactor="0.84" vaporized=""/>
    <tripinfo id="CVToC.18" depart="58.90" departLane="entry_0" departPos="13.38" departSpeed="33.09" departDelay="0.20" arrival="232.80" arrivalLane="e0_0" arrivalPos="4800.00" arrivalSpeed="32.75" duration="173.90" routeLength="4986.62" waitingTime="0.00" waitingCount="0" stopTime="0.00" timeLoss="54.72" rerouteNo="0" devices="tripinfo_CVToC.18 routing_CVToC.18 ssm_CVToC.18 toc_CVToC.18 driverstateCVToC.18" vType="vehLVOS1" speedFactor="1.16" vaporized=""/>
    <tripinfo id="CVToC.20" depart="62.40" departLane="entry_1" departPos="0.89" departSpeed="30.33" departDelay="1.20" arrival="234.10" arrivalLane="e0_1" arrivalPos="4800.00" arrivalSpeed="30.35" duration="171.70" routeLength="4999.11" waitingTime="0.00" waitingCount="0" stopTime="0.00" timeLoss="7.00" rerouteNo="0" devices="tripinfo_CVToC.20 routing_CVToC.20 ssm_CVToC.20 toc_CVToC.20 driverstateCVToC.20" vType="vehLVOS344" speedFactor="0.84" vaporized=""/>
    <tripinfo id="CVToC.22" depart="64.60" departLane="entry_1" departPos="0.14" departSpeed="30.48" departDelay="2.30" arrival="235.50" arrivalLane="e0_1" arrivalPos="4800.00" arrivalSpeed="31.61" duration="170.90" routeLength="4999.86" waitingTime="0.00" waitingCount="0" stopTime="0.00" timeLoss="12.87" rerouteNo="0" devices="tripinfo_CVToC.22 routing_CVToC.22 ssm_CVToC.22 toc_CVToC.22 driverstateCVToC.22" vType="vehLVOS914" speedFactor="0.88" vaporized=""/>
    <tripinfo id="CVToC.19" depart="60.90" departLane="entry_0" departPos="0.35" departSpeed="33.37" departDelay="0.60" arrival="236.00" arrivalLane="e0_0" arrivalPos="4800.00" arrivalSpeed="33.23" duration="175.10" routeLength="4999.65" waitingTime="0.00" waitingCount="0" stopTime="0.00" timeLoss="39.32" rerouteNo="0" devices="tripinfo_CVToC.19 routing_CVToC.19 ssm_CVToC.19 toc_CVToC.19 driverstateCVToC.19" vType="vehLVOS163" speedFactor="1.02" vaporized=""/>
    <tripinfo id="CVToC.23" depart="67.10" departLane="entry_1" departPos="3.00" departSpeed="30.89" departDelay="4.70" arrival="236.80" arrivalLane="e0_1" arrivalPos="4800.00" arrivalSpeed="32.86" duration="169.70" routeLength="4997.00" waitingTime="0.00" waitingCount="0" stopTime="0.00" timeLoss="25.08" rerouteNo="0" devices="tripinfo_CVToC.23 routing_CVToC.23 ssm_CVToC.23 toc_CVToC.23 driverstateCVToC.23" vType="vehLVOS803" speedFactor="0.96" vaporized=""/>
    <tripinfo id="CVToC.21" depart="63.40" departLane="entry_0" departPos="2.35" departSpeed="30.65" departDelay="1.50" arrival="237.70" arrivalLane="e0_0" arrivalPos="4800.00" arrivalSpeed="33.43" duration="174.30" routeLength="4997.65" waitingTime="0.00" waitingCount="0" stopTime="0.00" timeLoss="24.92" rerouteNo="0" devices="tripinfo_CVToC.21 routing_CVToC.21 ssm_CVToC.21 toc_CVToC.21 driverstateCVToC.21" vType="vehLVOS97" speedFactor="0.93" vaporized=""/>
    <tripinfo id="LV.14" depart="69.60" departLane="entry_1" departPos="16.48" departSpeed="33.30" departDelay="7.60" arrival="237.90" arrivalLane="e0_1" arrivalPos="4800.00" arrivalSpeed="33.27" duration="168.30" routeLength="4983.52" waitingTime="0.00" waitingCount="0" stopTime="0.00" timeLoss="18.65" rerouteNo="0" devices="tripinfo_LV.14 routing_LV.14 ssm_LV.14" vType="vehLVOS909" speedFactor="0.92" vaporized=""/>
    <tripinfo id="CVToC.25" depart="71.90" departLane="entry_1" departPos="5.19" departSpeed="33.58" departDelay="3.30" arrival="238.90" arrivalLane="e0_1" arrivalPos="4800.00" arrivalSpeed="34.56" duration="167.00" routeLength="4994.81" waitingTime="0.00" waitingCount="0" stopTime="0.00" timeLoss="39.93" rerouteNo="0" devices="tripinfo_CVToC.25 routing_CVToC.25 ssm_CVToC.25 toc_CVToC.25 driverstateCVToC.25" vType="vehLVOS530" speedFactor="1.09" vaporized=""/>
    <tripinfo id="CAVToC.19" depart="65.60" departLane="entry_0" departPos="2.71" departSpeed="28.76" departDelay="1.70" arrival="240.20" arrivalLane="e0_0" arrivalPos="4800.00" arrivalSpeed="30.79" duration="174.60" routeLength="4997.29" waitingTime="0.00" waitingCount="0" stopTime="0.00" timeLoss="12.62" rerouteNo="0" devices="tripinfo_CAVToC.19 routing_CAVToC.19 ssm_CAVToC.19 toc_CAVToC.19 driverstateCAVToC.19" vType="vehLVOS973" speedFactor="0.85" vaporized=""/>
    <tripinfo id="CAVToC.20" depart="68.30" departLane="entry_0" departPos="0.63" departSpeed="29.10" departDelay="2.30" arrival="242.10" arrivalLane="e0_0" arrivalPos="4800.00" arrivalSpeed="35.31" duration="173.80" routeLength="4999.37" waitingTime="0.00" waitingCount="0" stopTime="0.00" timeLoss="32.17" rerouteNo="0" devices="tripinfo_CAVToC.20 routing_CAVToC.20 ssm_CAVToC.20 toc_CAVToC.20 driverstateCAVToC.20" vType="vehLVOS422" speedFactor="0.98" vaporized=""/>
    <tripinfo id="CVToC.26" depart="74.80" departLane="entry_1" departPos="18.31" departSpeed="33.77" departDelay="5.50" arrival="242.10" arrivalLane="e0_1" arrivalPos="4800.00" arrivalSpeed="35.88" duration="167.30" routeLength="4981.69" waitingTime="0.00" waitingCount="0" stopTime="0.00" timeLoss="39.20" rerouteNo="0" devices="tripinfo_CVToC.26 routing_CVToC.26 ssm_CVToC.26 toc_CVToC.26 driverstateCVToC.26" vType="vehLVOS606" speedFactor="1.08" vaporized=""/>