<?xml version="1.0" encoding="UTF-8"?>

<!-- generated on Mon Jul 27 11:00:48 2020 by Eclipse SUMO Version v1_6_0+0553-a03471b
<configuration xmlns:xsi="http://www.w3.org/2001/XMLSchema-instance" xsi:noNamespaceSchemaLocation="http://sumo.dlr.de/xsd/sumoConfiguration.xsd">

    <input>
        <net-file value="scenario/UC5_1.net.xml"/>
        <route-files value="scenario/routes_trafficMix_0_trafficDemand_1_driverBehaviour_OS_seed_0.xml"/>
        <additional-files value="scenario/additionalsOutput_trafficMix_0_trafficDemand_1_driverBehaviour_OS_seed_0.xml,scenario/vTypesCAVToC_OS.add.xml,scenario/vTypesCVToC_OS.add.xml,scenario/vTypesLV_OS.add.xml,scenario/shapes.add.xml,scenario/view.add.xml"/>
    </input>

    <output>
        <tripinfo-output value="/home/noul_ar/workspace/tor-distribution/outputs/simulations/bad_test_2.zip_20200727-100032/tripinfo_6.xml"/>
    </output>

    <time>
        <step-length value="0.1"/>
    </time>

    <processing>
        <step-method.ballistic value="true"/>
        <ignore-route-errors value="true"/>
        <lanechange.duration value="2.5"/>
    </processing>

    <report>
        <no-step-log value="true"/>
    </report>

    <toc_device>
        <device.toc.ogNewTimeHeadway value="100"/>
        <device.toc.ogNewSpaceHeadway value="5"/>
        <device.toc.ogMaxDecel value="1"/>
        <device.toc.ogChangeRate value="1"/>
    </toc_device>

    <traci_server>
        <remote-port value="41431"/>
    </traci_server>

    <random_number>
        <seed value="1030"/>
    </random_number>

    <gui_only>
        <tracker-interval value="0.1"/>
    </gui_only>

</configuration>
-->

<tripinfos xmlns:xsi="http://www.w3.org/2001/XMLSchema-instance" xsi:noNamespaceSchemaLocation="http://sumo.dlr.de/xsd/tripinfo_file.xsd">
    <tripinfo id="CAVToC.1" depart="3.30" departLane="entry_1" departPos="83.45" departSpeed="36.49" departDelay="0.00" arrival="131.60" arrivalLane="e0_1" arrivalPos="4800.00" arrivalSpeed="38.99" duration="128.30" routeLength="4916.55" waitingTime="0.00" waitingCount="0" stopTime="0.00" timeLoss="2.26" rerouteNo="0" devices="tripinfo_CAVToC.1 routing_CAVToC.1 ssm_CAVToC.1 toc_CAVToC.1 driverstateCAVToC.1" vType="vehLVOS524" speedFactor="1.08" vaporized=""/>
    <tripinfo id="LV.1" depart="6.70" departLane="entry_1" departPos="134.40" departSpeed="39.39" departDelay="0.00" arrival="133.50" arrivalLane="e0_0" arrivalPos="4800.00" arrivalSpeed="39.34" duration="126.80" routeLength="4865.60" waitingTime="0.00" waitingCount="0" stopTime="0.00" timeLoss="3.23" rerouteNo="0" devices="tripinfo_LV.1 routing_LV.1 ssm_LV.1" vType="vehLVOS289" speedFactor="1.09" vaporized=""/>
    <tripinfo id="CAVToC.2" depart="6.70" departLane="entry_1" departPos="42.54" departSpeed="37.15" departDelay="0.00" arrival="135.00" arrivalLane="e0_1" arrivalPos="4800.00" arrivalSpeed="44.10" duration="128.30" routeLength="4957.46" waitingTime="0.00" waitingCount="0" stopTime="0.00" timeLoss="15.86" rerouteNo="0" devices="tripinfo_CAVToC.2 routing_CAVToC.2 ssm_CAVToC.2 toc_CAVToC.2 driverstateCAVToC.2" vType="vehLVOS54" speedFactor="1.22" vaporized=""/>
    <tripinfo id="LV.0" depart="2.10" departLane="entry_1" departPos="125.88" departSpeed="36.69" departDelay="0.00" arrival="135.40" arrivalLane="e0_0" arrivalPos="4800.00" arrivalSpeed="36.69" duration="133.30" routeLength="4874.12" waitingTime="0.00" waitingCount="0" stopTime="0.00" timeLoss="0.38" rerouteNo="0" devices="tripinfo_LV.0 routing_LV.0 ssm_LV.0" vType="vehLVOS158" speedFactor="1.02" vaporized=""/>
    <tripinfo id="CVToC.1" depart="10.00" departLane="entry_1" departPos="2.87" departSpeed="36.49" departDelay="0.00" arrival="141.60" arrivalLane="e0_1" arrivalPos="4800.00" arrivalSpeed="39.01" duration="131.60" routeLength="4997.13" waitingTime="0.00" waitingCount="0" stopTime="0.00" timeLoss="3.49" rerouteNo="0" devices="tripinfo_CVToC.1 routing_CVToC.1 ssm_CVToC.1 toc_CVToC.1 driverstateCVToC.1" vType="vehLVOS216" speedFactor="1.08" vaporized=""/>
    <tripinfo id="CAVToC.3" depart="6.90" departLane="entry_0" departPos="199.90" departSpeed="42.68" departDelay="0.00" arrival="143.30" arrivalLane="e0_1" arrivalPos="4800.00" arrivalSpeed="42.02" duration="136.40" routeLength="4800.10" waitingTime="0.00" waitingCount="0" stopTime="0.00" timeLoss="23.88" rerouteNo="0" devices="tripinfo_CAVToC.3 routing_CAVToC.3 ssm_CAVToC.3 toc_CAVToC.3 driverstateCAVToC.3" vType="vehLVOS235" speedFactor="1.18" vaporized=""/>
    <tripinfo id="CVToC.0" depart="8.60" departLane="entry_1" departPos="34.16" departSpeed="36.34" departDelay="0.00" arrival="143.50" arrivalLane="e0_0" arrivalPos="4800.00" arrivalSpeed="37.03" duration="134.90" routeLength="4965.84" waitingTime="0.00" waitingCount="0" stopTime="0.00" timeLoss="1.20" rerouteNo="0" devices="tripinfo_CVToC.0 routing_CVToC.0 ssm_CVToC.0 toc_CVToC.0 driverstateCVToC.0" vType="vehLVOS918" speedFactor="1.03" vaporized=""/>
    <tripinfo id="CAVToC.4" depart="7.40" departLane="entry_0" departPos="142.65" departSpeed="36.84" departDelay="0.00" arrival="145.90" arrivalLane="e0_0" arrivalPos="4800.00" arrivalSpeed="36.75" duration="138.50" routeLength="4857.35" waitingTime="0.00" waitingCount="0" stopTime="0.00" timeLoss="6.60" rerouteNo="0" devices="tripinfo_CAVToC.4 routing_CAVToC.4 ssm_CAVToC.4 toc_CAVToC.4 driverstateCAVToC.4" vType="vehLVOS268" speedFactor="1.02" vaporized=""/>
    <tripinfo id="CAVToC.5" depart="14.40" departLane="entry_1" departPos="1.18" departSpeed="34.40" departDelay="0.00" arrival="152.80" arrivalLane="e0_0" arrivalPos="4800.00" arrivalSpeed="37.29" duration="138.40" routeLength="4998.82" waitingTime="0.00" waitingCount="0" stopTime="0.00" timeLoss="4.54" rerouteNo="0" devices="tripinfo_CAVToC.5 routing_CAVToC.5 ssm_CAVToC.5 toc_CAVToC.5 driverstateCAVToC.5" vType="vehLVOS71" speedFactor="1.03" vaporized=""/>
    <tripinfo id="CVToC.5" depart="19.50" departLane="entry_0" departPos="2.64" departSpeed="29.30" departDelay="0.00" arrival="154.20" arrivalLane="e0_1" arrivalPos="4800.00" arrivalSpeed="38.19" duration="134.70" routeLength="4997.36" waitingTime="0.00" waitingCount="0" stopTime="0.00" timeLoss="3.87" rerouteNo="0" devices="tripinfo_CVToC.5 routing_CVToC.5 ssm_CVToC.5 toc_CVToC.5 driverstateCVToC.5" vType="vehLVOS515" speedFactor="1.06" vaporized=""/>
    <tripinfo id="CAVToC.0" depart="0.50" departLane="entry_1" departPos="199.90" departSpeed="30.92" departDelay="0.00" arrival="156.10" arrivalLane="e0_0" arrivalPos="4800.00" arrivalSpeed="30.85" duration="155.60" routeLength="4800.10" waitingTime="0.00" waitingCount="0" stopTime="0.00" timeLoss="0.34" rerouteNo="0" devices="tripinfo_CAVToC.0 routing_CAVToC.0 ssm_CAVToC.0 toc_CAVToC.0 driverstateCAVToC.0" vType="vehLVOS616" speedFactor="0.86" vaporized=""/>
    <tripinfo id="CVToC.3" depart="12.20" departLane="entry_1" departPos="8.52" departSpeed="33.94" departDelay="0.00" arrival="159.30" arrivalLane="e0_0" arrivalPos="4800.00" arrivalSpeed="33.94" duration="147.10" routeLength="4991.48" waitingTime="0.00" waitingCount="0" stopTime="0.00" timeLoss="0.03" rerouteNo="0" devices="tripinfo_CVToC.3 routing_CVToC.3 ssm_CVToC.3 toc_CVToC.3 driverstateCVToC.3" vType="vehLVOS578" speedFactor="0.94" vaporized=""/>
    <tripinfo id="CAVToC.9" depart="26.70" departLane="entry_1" departPos="58.41" departSpeed="33.30" departDelay="0.10" arrival="163.40" arrivalLane="e0_1" arrivalPos="4800.00" arrivalSpeed="38.36" duration="136.70" routeLength="4941.59" waitingTime="0.00" waitingCount="0" stopTime="0.00" timeLoss="8.15" rerouteNo="0" devices="tripinfo_CAVToC.9 routing_CAVToC.9 ssm_CAVToC.9 toc_CAVToC.9 driverstateCAVToC.9" vType="vehLVOS606" speedFactor="1.06" vaporized=""/>
    <tripinfo id="LV.2" depart="27.50" departLane="entry_0" departPos="1.21" departSpeed="43.85" departDelay="4.40" arrival="165.20" arrivalLane="e0_1" arrivalPos="4800.00" arrivalSpeed="42.36" duration="137.70" routeLength="4998.79" waitingTime="0.00" waitingCount="0" stopTime="0.00" timeLoss="23.66" rerouteNo="0" devices="tripinfo_LV.2 routing_LV.2 ssm_LV.2" vType="vehLVOS332" speedFactor="1.21" vaporized=""/>
    <tripinfo id="CVToC.7" depart="24.30" departLane="entry_1" departPos="68.73" departSpeed="30.99" departDelay="0.00" arrival="166.80" arrivalLane="e0_0" arrivalPos="4800.00" arrivalSpeed="34.65" duration="142.50" routeLength="4931.27" waitingTime="0.00" waitingCount="0" stopTime="0.00" timeLoss="0.61" rerouteNo="0" devices="tripinfo_CVToC.7 routing_CVToC.7 ssm_CVToC.7 toc_CVToC.7 driverstateCVToC.7" vType="vehLVOS545" speedFactor="0.96" vaporized=""/>
    <tripinfo id="LV.4" depart="37.90" departLane="entry_1" departPos="1.17" departSpeed="44.86" departDelay="3.90" arrival="169.20" arrivalLane="e0_1" arrivalPos="4800.00" arrivalSpeed="44.84" duration="131.30" routeLength="4998.83" waitingTime="0.00" waitingCount="0" stopTime="0.00" timeLoss="19.81" rerouteNo="0" devices="tripinfo_LV.4 routing_LV.4 ssm_LV.4" vType="vehLVOS832" speedFactor="1.24" vaporized=""/>
    <tripinfo id="CVToC.8" depart="28.40" departLane="entry_1" departPos="37.21" departSpeed="34.20" departDelay="0.00" arrival="171.30" arrivalLane="e0_0" arrivalPos="4800.00" arrivalSpeed="35.60" duration="142.90" routeLength="4962.79" waitingTime="0.00" waitingCount="0" stopTime="0.00" timeLoss="3.56" rerouteNo="0" devices="tripinfo_CVToC.8 routing_CVToC.8 ssm_CVToC.8 toc_CVToC.8 driverstateCVToC.8" vType="vehLVOS345" speedFactor="0.99" vaporized=""/>
    <tripinfo id="CAVToC.10" depart="33.10" departLane="entry_1" departPos="123.84" departSpeed="35.47" departDelay="0.00" arrival="174.20" arrivalLane="e0_0" arrivalPos="4800.00" arrivalSpeed="37.11" duration="141.10" routeLength="4876.16" waitingTime="0.00" waitingCount="0" stopTime="0.00" timeLoss="9.90" rerouteNo="0" devices="tripinfo_CAVToC.10 routing_CAVToC.10 ssm_CAVToC.10 toc_CAVToC.10 driverstateCAVToC.10" vType="vehLVOS284" speedFactor="1.03" vaporized=""/>
    <tripinfo id="CVToC.4" depart="15.30" departLane="entry_0" departPos="199.90" departSpeed="26.06" departDelay="0.20" arrival="177.40" arrivalLane="e0_1" arrivalPos="4800.00" arrivalSpeed="40.14" duration="162.10" routeLength="4800.10" waitingTime="0.00" waitingCount="0" stopTime="0.00" timeLoss="42.47" rerouteNo="0" devices="tripinfo_CVToC.4 routing_CVToC.4 ssm_CVToC.4 toc_CVToC.4 driverstateCVToC.4" vType="vehLVOS926" speedFactor="1.11" vaporized=""/>
    <tripinfo id="LV.3" depart="31.80" departLane="entry_0" departPos="29.82" departSpeed="36.81" departDelay="0.00" arrival="178.90" arrivalLane="e0_0" arrivalPos="4800.00" arrivalSpeed="36.77" duration="147.10" routeLength="4970.18" waitingTime="0.00" waitingCount="0" stopTime="0.00" timeLoss="12.06" rerouteNo="0" devices="tripinfo_LV.3 routing_LV.3 ssm_LV.3" vType="vehLVOS542" speedFactor="1.02" vaporized=""/>
    <tripinfo id="CAVToC.14" depart="39.70" departLane="entry_1" departPos="7.14" departSpeed="36.35" departDelay="1.00" arrival="183.30" arrivalLane="e0_0" arrivalPos="4800.00" arrivalSpeed="36.87" duration="143.60" routeLength="4992.86" waitingTime="0.00" waitingCount="0" stopTime="0.00" timeLoss="8.53" rerouteNo="0" devices="tripinfo_CAVToC.14 routing_CAVToC.14 ssm_CAVToC.14 toc_CAVToC.14 driverstateCAVToC.14" vType="vehLVOS588" speedFactor="1.02" vaporized=""/>
    <tripinfo id="CAVToC.6" depart="16.00" departLane="entry_0" departPos="133.08" departSpeed="27.32" departDelay="0.10" arrival="184.90" arrivalLane="e0_1" arrivalPos="4800.00" arrivalSpeed="37.93" duration="168.90" routeLength="4866.92" waitingTime="0.00" waitingCount="0" stopTime="0.00" timeLoss="40.59" rerouteNo="0" devices="tripinfo_CAVToC.6 routing_CAVToC.6 ssm_CAVToC.6 toc_CAVToC.6 driverstateCAVToC.6" vType="vehLVOS222" speedFactor="1.05" vaporized=""/>
    <tripinfo id="CAVToC.18" depart="42.00" departLane="entry_1" departPos="11.81" departSpeed="36.35" departDelay="0.00" arrival="187.10" arrivalLane="e0_0" arrivalPos="4800.00" arrivalSpeed="37.99" duration="145.10" routeLength="4988.19" waitingTime="0.00" waitingCount="0" stopTime="0.00" timeLoss="13.70" rerouteNo="0" devices="tripinfo_CAVToC.18 routing_CAVToC.18 ssm_CAVToC.18 toc_CAVToC.18 driverstateCAVToC.18" vType="vehLVOS375" speedFactor="1.05" vaporized=""/>
    <tripinfo id="CAVToC.17" depart="43.90" departLane="entry_1" departPos="4.16" departSpeed="36.34" departDelay="3.00" arrival="188.30" arrivalLane="e0_1" arrivalPos="4800.00" arrivalSpeed="37.82" duration="144.40" routeLength="4995.84" waitingTime="0.00" waitingCount="0" stopTime="0.00" timeLoss="12.23" rerouteNo="0" devices="tripinfo_CAVToC.17 routing_CAVToC.17 ssm_CAVToC.17 toc_CAVToC.17 driverstateCAVToC.17" vType="vehLVOS293" speedFactor="1.05" vaporized=""/>
    <tripinfo id="LV.6" depart="46.30" departLane="entry_1" departPos="0.25" departSpeed="40.61" departDelay="0.60" arrival="191.20" arrivalLane="e0_1" arrivalPos="4800.00" arrivalSpeed="40.57" duration="144.90" routeLength="4999.75" waitingTime="0.00" waitingCount="0" stopTime="0.00" timeLoss="21.78" rerouteNo="0" devices="tripinfo_LV.6 routing_LV.6 ssm_LV.6" vType="vehLVOS583" speedFactor="1.12" vaporized=""/>
    <tripinfo id="LV.5" depart="47.90" departLane="entry_1" departPos="5.51" departSpeed="41.00" departDelay="3.40" arrival="192.60" arrivalLane="e0_1" arrivalPos="4800.00" arrivalSpeed="40.98" duration="144.70" routeLength="4994.49" waitingTime="0.00" waitingCount="0" stopTime="0.00" timeLoss="22.80" rerouteNo="0" devices="tripinfo_LV.5 routing_LV.5 ssm_LV.5" vType="vehLVOS601" speedFactor="1.14" vaporized=""/>
    <tripinfo id="CAVToC.20" depart="49.60" departLane="entry_1" departPos="4.04" departSpeed="34.26" departDelay="1.40" arrival="199.80" arrivalLane="e0_0" arrivalPos="4800.00" arrivalSpeed="34.22" duration="150.20" routeLength="4995.96" waitingTime="0.00" waitingCount="0" stopTime="0.00" timeLoss="4.36" rerouteNo="0" devices="tripinfo_CAVToC.20 routing_CAVToC.20 ssm_CAVToC.20 toc_CAVToC.20 driverstateCAVToC.20" vType="vehLVOS460" speedFactor="0.95" vaporized=""/>
    <tripinfo id="CAVToC.24" depart="51.80" departLane="entry_1" departPos="0.48" departSpeed="34.49" departDelay="0.20" arrival="201.30" arrivalLane="e0_1" arrivalPos="4800.00" arrivalSpeed="35.43" duration="149.50" routeLength="4999.52" waitingTime="0.00" waitingCount="0" stopTime="0.00" timeLoss="8.56" rerouteNo="0" devices="tripinfo_CAVToC.24 routing_CAVToC.24 ssm_CAVToC.24 toc_CAVToC.24 driverstateCAVToC.24" vType="vehLVOS321" speedFactor="0.98" vaporized=""/>
    <tripinfo id="CAVToC.23" depart="54.30" departLane="entry_1" departPos="5.29" departSpeed="34.75" departDelay="5.00" arrival="202.90" arrivalLane="e0_1" arrivalPos="4800.00" arrivalSpeed="36.88" duration="148.60" routeLength="4994.71" waitingTime="0.00" waitingCount="0" stopTime="0.00" timeLoss="13.18" rerouteNo="0" devices="tripinfo_CAVToC.23 routing_CAVToC.23 ssm_CAVToC.23 toc_CAVToC.23 driverstateCAVToC.23" vType="vehLVOS568" speedFactor="1.02" vaporized=""/>
    <tripinfo id="CAVToC.16" depart="42.50" departLane="entry_0" departPos="11.46" departSpeed="28.77" departDelay="2.30" arrival="204.50" arrivalLane="e0_1" arrivalPos="4800.00" arrivalSpeed="38.71" duration="162.00" routeLength="4988.54" waitingTime="0.00" waitingCount="0" stopTime="0.00" timeLoss="33.14" rerouteNo="0" devices="tripinfo_CAVToC.16 routing_CAVToC.16 ssm_CAVToC.16 toc_CAVToC.16 driverstateCAVToC.16" vType="vehLVOS678" speedFactor="1.07" vaporized=""/>
    <tripinfo id="CAVToC.12" depart="37.40" departLane="entry_0" departPos="74.46" departSpeed="34.95" departDelay="0.00" arrival="205.60" arrivalLane="e0_1" arrivalPos="4800.00" arrivalSpeed="37.38" duration="168.20" routeLength="4925.54" waitingTime="0.00" waitingCount="0" stopTime="0.00" timeLoss="36.80" rerouteNo="0" devices="tripinfo_CAVToC.12 routing_CAVToC.12 ssm_CAVToC.12 toc_CAVToC.12 driverstateCAVToC.12" vType="vehLVOS432" speedFactor="1.04" vaporized=""/>
    <tripinfo id="CVToC.2" depart="11.30" departLane="entry_0" departPos="199.90" departSpeed="23.98" departDelay="0.00" arrival="211.70" arrivalLane="e0_0" arrivalPos="4800.00" arrivalSpeed="23.97" duration="200.40" routeLength="4800.10" waitingTime="0.00" waitingCount="0" stopTime="0.00" timeLoss="0.21" rerouteNo="0" devices="tripinfo_CVToC.2 routing_CVToC.2 ssm_CVToC.2 toc_CVToC.2 driverstateCVToC.2" vType="vehLVOS596" speedFactor="0.66" vaporized=""/>
    <tripinfo id="CVToC.12" depart="56.60" departLane="entry_1" departPos="2.34" departSpeed="30.87" departDelay="0.30" arrival="213.20" arrivalLane="e0_1" arrivalPos="4800.00" arrivalSpeed="34.57" duration="156.60" routeLength="4997.66" waitingTime="0.00" waitingCount="0" stopTime="0.00" timeLoss="11.96" rerouteNo="0" devices="tripinfo_CVToC.12 routing_CVToC.12 ssm_CVToC.12 toc_CVToC.12 driverstateCVToC.12" vType="vehLVOS18" speedFactor="0.96" vaporized=""/>
    <tripinfo id="CAVToC.7" depart="16.70" departLane="entry_0" departPos="75.57" departSpeed="28.03" departDelay="0.00" arrival="213.40" arrivalLane="e0_0" arrivalPos="4800.00" arrivalSpeed="26.89" duration="196.70" routeLength="4924.43" waitingTime="0.00" waitingCount="0" stopTime="0.00" timeLoss="50.91" rerouteNo="0" devices="tripinfo_CAVToC.7 routing_CAVToC.7 ssm_CAVToC.7 toc_CAVToC.7 driverstateCAVToC.7" vType="vehLVOS499" speedFactor="0.94" vaporized=""/>
    <tripinfo id="CAVToC.8" depart="17.80" departLane="entry_0" departPos="38.49" departSpeed="28.38" departDelay="0.00" arrival="215.90" arrivalLane="e0_0" arrivalPos="4800.00" arrivalSpeed="30.23" duration="198.10" routeLength="4961.51" waitingTime="0.00" waitingCount="0" stopTime="0.00" timeLoss="41.43" rerouteNo="0" devices="tripinfo_CAVToC.8 routing_CAVToC.8 ssm_CAVToC.8 toc_CAVToC.8 driverstateCAVToC.8" vType="vehLVOS589" speedFactor="0.88" vaporized=""/>
    <tripinfo id="CVToC.6" depart="24.40" departLane="entry_0" departPos="142.80" departSpeed="28.36" departDelay="0.30" arrival="217.50" arrivalLane="e0_0" arrivalPos="4800.00" arrivalSpeed="29.00" duration="193.10" routeLength="4857.20" waitingTime="0.00" waitingCount="0" stopTime="0.00" timeLoss="62.79" rerouteNo="0" devices="tripinfo_CVToC.6 routing_CVToC.6 ssm_CVToC.6 toc_CVToC.6 driverstateCVToC.6" vType="vehLVOS915" speedFactor="1.03" vaporized=""/>
    <tripinfo id="CVToC.9" depart="29.70" departLane="entry_0" departPos="19.39" departSpeed="34.92" departDelay="0.00" arrival="219.90" arrivalLane="e0_0" arrivalPos="4800.00" arrivalSpeed="29.49" duration="190.20" routeLength="4980.61" waitingTime="0.00" waitingCount="0" stopTime="0.00" timeLoss="47.56" rerouteNo="0" devices="tripinfo_CVToC.9 routing_CVToC.9 ssm_CVToC.9 toc_CVToC.9 driverstateCVToC.9" vType="vehLVOS18" speedFactor="0.97" vaporized=""/>
    <tripinfo id="CAVToC.26" depart="59.10" departLane="entry_1" departPos="9.71" departSpeed="30.97" departDelay="0.20" arrival="220.70" arrivalLane="e0_1" arrivalPos="4800.00" arrivalSpeed="31.93" duration="161.60" routeLength="4990.29" waitingTime="0.00" waitingCount="0" stopTime="0.00" timeLoss="5.45" rerouteNo="0" devices="tripinfo_CAVToC.26 routing_CAVToC.26 ssm_CAVToC.26 toc_CAVToC.26 driverstateCAVToC.26" vType="vehLVOS533" speedFactor="0.89" vaporized=""/>
    <tripinfo id="CAVToC.11" depart="36.70" departLane="entry_0" departPos="131.32" departSpeed="34.54" departDelay="0.10" arrival="221.20" arrivalLane="e0_0" arrivalPos="4800.00" arrivalSpeed="30.14" duration="184.50" routeLength="4868.68" waitingTime="0.00" waitingCount="0" stopTime="0.00" timeLoss="43.50" rerouteNo="0" devices="tripinfo_CAVToC.11 routing_CAVToC.11 ssm_CAVToC.11 toc_CAVToC.11 driverstateCAVToC.11" vType="vehLVOS980" speedFactor="0.96" vaporized=""/>
    <tripinfo id="CVToC.13" depart="61.50" departLane="entry_1" departPos="4.73" departSpeed="31.60" departDelay="2.60" arrival="222.60" arrivalLane="e0_1" arrivalPos="4800.00" arrivalSpeed="36.59" duration="161.10" routeLength="4995.27" waitingTime="0.00" waitingCount="0" stopTime="0.00" timeLoss="27.61" rerouteNo="0" devices="tripinfo_CVToC.13 routing_CVToC.13 ssm_CVToC.13 toc_CVToC.13 driverstateCVToC.13" vType="vehLVOS243" speedFactor="1.04" vaporized=""/>
    <tripinfo id="CAVToC.13" depart="38.70" departLane="entry_0" departPos="48.12" departSpeed="34.41" departDelay="0.10" arrival="223.40" arrivalLane="e0_0" arrivalPos="4800.00" arrivalSpeed="30.03" duration="184.70" routeLength="4951.88" waitingTime="0.00" waitingCount="0" stopTime="0.00" timeLoss="40.75" rerouteNo="0" devices="tripinfo_CAVToC.13 routing_CAVToC.13 ssm_CAVToC.13 toc_CAVToC.13 driverstateCAVToC.13" vType="vehLVOS716" speedFactor="0.95" vaporized=""/>
    <tripinfo id="CVToC.17" depart="64.40" departLane="entry_1" departPos="0.57" departSpeed="32.88" departDelay="3.10" arrival="224.10" arrivalLane="e0_1" arrivalPos="4800.00" arrivalSpeed="35.64" duration="159.70" routeLength="4999.43" waitingTime="0.00" waitingCount="0" stopTime="0.00" timeLoss="49.64" rerouteNo="0" devices="tripinfo_CVToC.17 routing_CVToC.17 ssm_CVToC.17 toc_CVToC.17 driverstateCVToC.17" vType="vehLVOS895" speedFactor="1.26" vaporized=""/>
    <tripinfo id="CAVToC.15" depart="39.40" departLane="entry_0" departPos="12.52" departSpeed="27.51" departDelay="0.00" arrival="224.80" arrivalLane="e0_0" arrivalPos="4800.00" arrivalSpeed="27.51" duration="185.40" routeLength="4987.48" waitingTime="0.00" waitingCount="0" stopTime="0.00" timeLoss="4.06" rerouteNo="0" devices="tripinfo_CAVToC.15 routing_CAVToC.15 ssm_CAVToC.15 toc_CAVToC.15 driverstateCAVToC.15" vType="vehLVOS610" speedFactor="0.76" vaporized=""/>
    <tripinfo id="CAVToC.27" depart="67.20" departLane="entry_1" departPos="19.20" departSpeed="33.00" departDelay="2.60" arrival="225.10" arrivalLane="e0_1" arrivalPos="4800.00" arrivalSpeed="35.60" duration="157.90" routeLength="4980.80" waitingTime="0.00" waitingCount="0" stopTime="0.00" timeLoss="17.96" rerouteNo="0" devices="tripinfo_CAVToC.27 routing_CAVToC.27 ssm_CAVToC.27 toc_CAVToC.27 driverstateCAVToC.27" vType="vehLVOS819" speedFactor="0.99" vaporized=""/>
    <tripinfo id="CAVToC.19" depart="45.40" departLane="entry_0" departPos="8.13" departSpeed="29.73" departDelay="1.00" arrival="226.40" arrivalLane="e0_0" arrivalPos="4800.00" arrivalSpeed="30.59" duration="181.00" routeLength="4991.87" waitingTime="0.00" waitingCount="0" stopTime="0.00" timeLoss="52.32" rerouteNo="0" devices="tripinfo_CAVToC.19 routing_CAVToC.19 ssm_CAVToC.19 toc_CAVToC.19 driverstateCAVToC.19" vType="vehLVOS642" speedFactor="1.07" vaporized=""/>
    <tripinfo id="CAVToC.28" depart="70.20" departLane="entry_1" departPos="30.53" departSpeed="33.45" departDelay="2.70" arrival="226.40" arrivalLane="e0_1" arrivalPos="4800.00" arrivalSpeed="36.41" duration="156.20" routeLength="4969.47" waitingTime="0.00" waitingCount="0" stopTime="0.00" timeLoss="28.47" rerouteNo="0" devices="tripinfo_CAVToC.28 routing_CAVToC.28 ssm_CAVToC.28 toc_CAVToC.28 driverstateCAVToC.28" vType="vehLVOS575" speedFactor="1.08" vaporized=""/>
    <tripinfo id="LV.8" depart="55.90" departLane="entry_1" departPos="53.21" departSpeed="30.38" departDelay="0.60" arrival="228.00" arrivalLane="e0_0" arrivalPos="4800.00" arrivalSpeed="30.32" duration="172.10" routeLength="4946.79" waitingTime="0.00" waitingCount="0" stopTime="0.00" timeLoss="9.26" rerouteNo="0" devices="tripinfo_LV.8 routing_LV.8 ssm_LV.8" vType="vehLVOS194" speedFactor="0.84" vaporized=""/>
    <tripinfo id="CVToC.19" depart="72.20" departLane="entry_1" departPos="20.21" departSpeed="33.56" departDelay="2.40" arrival="228.60" arrivalLane="e0_1" arrivalPos="4800.00" arrivalSpeed="35.34" duration="156.40" routeLength="4979.79" waitingTime="0.00" waitingCount="0" stopTime="0.00" timeLoss="16.01" rerouteNo="0" devices="tripinfo_CVToC.19 routing_CVToC.19 ssm_CVToC.19 toc_CVToC.19 driverstateCVToC.19" vType="vehLVOS466" speedFactor="0.98" vaporized=""/>
    <tripinfo id="LV.11" depart="74.10" departLane="entry_1" departPos="10.70" departSpeed="36.80" departDelay="4.70" arrival="229.60" arrivalLane="e0_1" arrivalPos="4800.00" arrivalSpeed="36.35" duration="155.50" routeLength="4989.30" waitingTime="0.00" waitingCount="0" stopTime="0.00" timeLoss="19.85" rerouteNo="0" devices="tripinfo_LV.11 routing_LV.11 ssm_LV.11" vType="vehLVOS321" speedFactor="1.02" vaporized=""/>
    <tripinfo id="CVToC.10" depart="48.10" departLane="entry_0" departPos="21.02" departSpeed="29.64" departDelay="0.00" arrival="230.90" arrivalLane="e0_0" arrivalPos="4800.00" arrivalSpeed="31.21" duration="182.80" routeLength="4978.98" waitingTime="0.00" waitingCount="0" stopTime="0.00" timeLoss="23.57" rerouteNo="0" devices="tripinfo_CVToC.10 routing_CVToC.10 ssm_CVToC.10 toc_CVToC.10 driverstateCVToC.10" vType="vehLVOS532" speedFactor="0.87" vaporized=""/>
    <tripinfo id="LV.12" depart="71.00" departLane="entry_0" departPos="14.36" departSpeed="34.58" departDelay="0.80" arrival="231.20" arrivalLane="e0_1" arrivalPos="4800.00" arrivalSpeed="34.58" duration="160.20" routeLength="4985.64" waitingTime="0.00" waitingCount="0" stopTime="0.00" timeLoss="15.96" rerouteNo="0" devices="tripinfo_LV.12 routing_LV.12 ssm_LV.12" vType="vehLVOS25" speedFactor="0.96" vaporized=""/>
    <tripinfo id="CAVToC.21" depart="49.90" departLane="entry_0" departPos="4.78" departSpeed="29.79" departDelay="1.00" arrival="232.60" arrivalLane="e0_0" arrivalPos="4800.00" arrivalSpeed="30.83" duration="182.70" routeLength="4995.22" waitingTime="0.00" waitingCount="0" stopTime="0.00" timeLoss="21.04" rerouteNo="0" devices="tripinfo_CAVToC.21 routing_CAVToC.21 ssm_CAVToC.21 toc_CAVToC.21 driverstateCAVToC.21" vType="vehLVOS150" speedFactor="0.86" vaporized=""/>
    <tripinfo id="CVToC.18" depart="68.30" departLane="entry_0" departPos="13.62" departSpeed="32.68" departDelay="5.70" arrival="233.10" arrivalLane="e0_1" arrivalPos="4800.00" arrivalSpeed="36.94" duration="164.80" routeLength="4986.38" waitingTime="0.00" waitingCount="0" stopTime="0.00" timeLoss="54.70" rerouteNo="0" devices="tripinfo_CVToC.18 routing_CVToC.18 ssm_CVToC.18 toc_CVToC.18 driverstateCVToC.18" vType="vehLVOS73" speedFactor="1.26" vaporized=""/>
    <tripinfo id="CAVToC.22" depart="52.60" departLane="entry_0" departPos="2.22" departSpeed="30.50" departDelay="3.50" arrival="233.50" arrivalLane="e0_0" arrivalPos="4800.00" arrivalSpeed="33.09" duration="180.90" routeLength="4997.78" waitingTime="0.00" waitingCount="0" stopTime="0.00" timeLoss="47.65" rerouteNo="0" devices="tripinfo_CAVToC.22 routing_CAVToC.22 ssm_CAVToC.22 toc_CAVToC.22 driverstateCAVToC.22" vType="vehLVOS201" speedFactor="1.04" vaporized=""/>
    <tripinfo id="CVToC.20" depart="73.40" departLane="entry_0" departPos="10.67" departSpeed="33.79" departDelay="1.10" arrival="234.30" arrivalLane="e0_1" arrivalPos="4800.00" arrivalSpeed="37.65" duration="160.90" routeLength="4989.33" waitingTime="0.00" waitingCount="0" stopTime="0.00" timeLoss="32.50" rerouteNo="0" devices="tripinfo_CVToC.20 routing_CVToC.20 ssm_CVToC.20 toc_CVToC.20 driverstateCVToC.20" vType="vehLVOS880" speedFactor="1.08" vaporized=""/>
    <tripinfo id="CAVToC.25" depart="54.90" departLane="entry_0" departPos="1.57" departSpeed="30.49" departDelay="2.80" arrival="235.30" arrivalLane="e0_0" arrivalPos="4800.00" arrivalSpeed="31.35" duration="180.40" routeLength="4998.43" waitingTime="0.00" waitingCount="0" stopTime="0.00" timeLoss="21.29" rerouteNo="0" devices="tripinfo_CAVToC.25 routing_CAVToC.25 ssm_CAVToC.25 toc_CAVToC.25 driverstateCAVToC.25" vType="vehLVOS267" speedFactor="0.87" vaporized=""/>
    <tripinfo id="LV.7" depart="76.60" departLane="entry_0" departPos="0.04" departSpeed="41.71" departDelay="22.10" arrival="235.50" arrivalLane="e0_1" arrivalPos="4800.00" arrivalSpeed="37.68" duration="158.90" routeLength="4999.96" waitingTime="0.00" waitingCount="0" stopTime="0.00" timeLoss="38.97" rerouteNo="0" devices="tripinfo_LV.7 routing_LV.7 ssm_LV.7" vType="vehLVOS237" speedFactor="1.16" vaporized=""/>
    <tripinfo id="CVToC.11" depart="57.60" departLane="entry_0" departPos="3.93" departSpeed="30.85" departDelay="1.50" arrival="237.10" arrivalLane="e0_0" arrivalPos="4800.00" arrivalSpeed="34.94" duration="179.50" routeLength="4996.07" waitingTime="0.00" waitingCount="0" stopTime="0.00" timeLoss="37.76" rerouteNo="0" devices="tripinfo_CVToC.11 routing_CVToC.11 ssm_CVToC.11 toc_CVToC.11 driverstateCVToC.11" vType="vehLVOS568" speedFactor="0.98" vaporized=""/>
    <tripinfo id="CAVToC.30" depart="78.50" departLane="entry_1" departPos="14.78" departSpeed="31.15" departDelay="3.80" arrival="237.70" arrivalLane="e0_1" arrivalPos="4800.00" arrivalSpeed="35.31" duration="159.20" routeLength="4985.22" waitingTime="0.00" waitingCount="0" stopTime="0.00" timeLoss="18.10" rerouteNo="0" devices="tripinfo_CAVToC.30 routing_CAVToC.30 ssm_CAVToC.30 toc_CAVToC.30 driverstateCAVToC.30" vType="vehLVOS652" speedFactor="0.98" vaporized=""/>
    <tripinfo id="CVToC.14" depart="60.10" departLane="entry_0" departPos="3.83" departSpeed="31.12" departDelay="0.80" arrival="239.20" arrivalLane="e0_0" arrivalPos="4800.00" arrivalSpeed="34.37" duration="179.10" routeLength="4996.17" waitingTime="0.00" waitingCount="0" stopTime="0.00" timeLoss="36.40" rerouteNo="0" devices="tripinfo_CVToC.14 routing_CVToC.14 ssm_CVToC.14 toc_CVToC.14 driverstateCVToC.14" vType="vehLVOS62" speedFactor="0.97" vaporized=""/>
    <tripinfo id="CAVToC.29" depart="80.80" departLane="entry_1" departPos="7.37" departSpeed="28.91" departDelay="6.20" arrival="239.40" arrivalLane="e0_1" arrivalPos="4800.00" arrivalSpeed="34.68" duration="158.60" routeLength="4992.63" waitingTime="0.00" waitingCount="0" stopTime="0.00" timeLoss="15.02" rerouteNo="0" devices="tripinfo_CAVToC.29 routing_CAVToC.29 ssm_CAVToC.29 toc_CAVToC.29 driverstateCAVToC.29" vType="vehLVOS48" speedFactor="0.96" vaporized=""/>