<?xml version="1.0" encoding="UTF-8"?>

<!-- generated on Mon Jul 27 11:46:54 2020 by Eclipse SUMO Version v1_6_0+0553-a03471b
<configuration xmlns:xsi="http://www.w3.org/2001/XMLSchema-instance" xsi:noNamespaceSchemaLocation="http://sumo.dlr.de/xsd/sumoConfiguration.xsd">

    <input>
        <net-file value="scenario/UC5_1.net.xml"/>
        <route-files value="scenario/routes_trafficMix_0_trafficDemand_1_driverBehaviour_OS_seed_0.xml"/>
        <additional-files value="scenario/additionalsOutput_trafficMix_0_trafficDemand_1_driverBehaviour_OS_seed_0.xml,scenario/vTypesCAVToC_OS.add.xml,scenario/vTypesCVToC_OS.add.xml,scenario/vTypesLV_OS.add.xml,scenario/shapes.add.xml,scenario/view.add.xml"/>
    </input>

    <output>
        <tripinfo-output value="/home/noul_ar/workspace/tor-distribution/outputs/simulations/bad_test_2.zip_20200727-100032/tripinfo_10.xml"/>
    </output>

    <time>
        <step-length value="0.1"/>
    </time>

    <processing>
        <step-method.ballistic value="true"/>
        <ignore-route-errors value="true"/>
        <lanechange.duration value="2.5"/>
    </processing>

    <report>
        <no-step-log value="true"/>
    </report>

    <toc_device>
        <device.toc.ogNewTimeHeadway value="100"/>
        <device.toc.ogNewSpaceHeadway value="5"/>
        <device.toc.ogMaxDecel value="1"/>
        <device.toc.ogChangeRate value="1"/>
    </toc_device>

    <traci_server>
        <remote-port value="36163"/>
    </traci_server>

    <random_number>
        <seed value="1034"/>
    </random_number>

    <gui_only>
        <tracker-interval value="0.1"/>
    </gui_only>

</configuration>
-->

<tripinfos xmlns:xsi="http://www.w3.org/2001/XMLSchema-instance" xsi:noNamespaceSchemaLocation="http://sumo.dlr.de/xsd/tripinfo_file.xsd">
    <tripinfo id="CAVToC.0" depart="0.40" departLane="entry_1" departPos="199.90" departSpeed="38.23" departDelay="0.00" arrival="126.00" arrivalLane="e0_0" arrivalPos="4800.00" arrivalSpeed="38.23" duration="125.60" routeLength="4800.10" waitingTime="0.00" waitingCount="0" stopTime="0.00" timeLoss="0.00" rerouteNo="0" devices="tripinfo_CAVToC.0 routing_CAVToC.0 ssm_CAVToC.0 toc_CAVToC.0 driverstateCAVToC.0" vType="vehLVOS19" speedFactor="1.06" vaporized=""/>
    <tripinfo id="LV.0" depart="0.30" departLane="entry_0" departPos="199.90" departSpeed="37.20" departDelay="0.00" arrival="129.50" arrivalLane="e0_0" arrivalPos="4800.00" arrivalSpeed="37.18" duration="129.20" routeLength="4800.10" waitingTime="0.00" waitingCount="0" stopTime="0.00" timeLoss="0.14" rerouteNo="0" devices="tripinfo_LV.0 routing_LV.0 ssm_LV.0" vType="vehLVOS597" speedFactor="1.03" vaporized=""/>
    <tripinfo id="CVToC.0" depart="1.60" departLane="entry_0" departPos="175.80" departSpeed="34.44" departDelay="0.00" arrival="142.10" arrivalLane="e0_0" arrivalPos="4800.00" arrivalSpeed="34.37" duration="140.50" routeLength="4824.20" waitingTime="0.00" waitingCount="0" stopTime="0.00" timeLoss="0.41" rerouteNo="0" devices="tripinfo_CVToC.0 routing_CVToC.0 ssm_CVToC.0 toc_CVToC.0 driverstateCVToC.0" vType="vehLVOS869" speedFactor="0.95" vaporized=""/>
    <tripinfo id="CAVToC.1" depart="0.70" departLane="entry_1" departPos="141.00" departSpeed="34.09" departDelay="0.00" arrival="143.40" arrivalLane="e0_1" arrivalPos="4800.00" arrivalSpeed="34.02" duration="142.70" routeLength="4859.00" waitingTime="0.00" waitingCount="0" stopTime="0.00" timeLoss="0.13" rerouteNo="0" devices="tripinfo_CAVToC.1 routing_CAVToC.1 ssm_CAVToC.1 toc_CAVToC.1 driverstateCAVToC.1" vType="vehLVOS85" speedFactor="0.94" vaporized=""/>
    <tripinfo id="LV.1" depart="2.50" departLane="entry_0" departPos="86.22" departSpeed="42.96" departDelay="0.00" arrival="144.60" arrivalLane="e0_1" arrivalPos="4800.00" arrivalSpeed="37.30" duration="142.10" routeLength="4913.78" waitingTime="0.00" waitingCount="0" stopTime="0.00" timeLoss="27.64" rerouteNo="0" devices="tripinfo_LV.1 routing_LV.1 ssm_LV.1" vType="vehLVOS538" speedFactor="1.19" vaporized=""/>
    <tripinfo id="LV.2" depart="2.60" departLane="entry_0" departPos="12.74" departSpeed="38.13" departDelay="0.00" arrival="147.60" arrivalLane="e0_1" arrivalPos="4800.00" arrivalSpeed="38.12" duration="145.00" routeLength="4987.26" waitingTime="0.00" waitingCount="0" stopTime="0.00" timeLoss="14.15" rerouteNo="0" devices="tripinfo_LV.2 routing_LV.2 ssm_LV.2" vType="vehLVOS68" speedFactor="1.06" vaporized=""/>
    <tripinfo id="CVToC.1" depart="5.10" departLane="entry_1" departPos="5.60" departSpeed="35.42" departDelay="1.00" arrival="148.40" arrivalLane="e0_1" arrivalPos="4800.00" arrivalSpeed="39.87" duration="143.30" routeLength="4994.40" waitingTime="0.00" waitingCount="0" stopTime="0.00" timeLoss="33.22" rerouteNo="0" devices="tripinfo_CVToC.1 routing_CVToC.1 ssm_CVToC.1 toc_CVToC.1 driverstateCVToC.1" vType="vehLVOS77" speedFactor="1.26" vaporized=""/>
    <tripinfo id="CAVToC.2" depart="2.20" departLane="entry_1" departPos="120.38" departSpeed="33.71" departDelay="0.00" arrival="148.90" arrivalLane="e0_0" arrivalPos="4800.00" arrivalSpeed="33.71" duration="146.70" routeLength="4879.62" waitingTime="0.00" waitingCount="0" stopTime="0.00" timeLoss="1.88" rerouteNo="0" devices="tripinfo_CAVToC.2 routing_CAVToC.2 ssm_CAVToC.2 toc_CAVToC.2 driverstateCAVToC.2" vType="vehLVOS9" speedFactor="0.93" vaporized=""/>
    <tripinfo id="CVToC.2" depart="7.40" departLane="entry_1" departPos="1.61" departSpeed="34.25" departDelay="0.80" arrival="149.50" arrivalLane="e0_1" arrivalPos="4800.00" arrivalSpeed="37.74" duration="142.10" routeLength="4998.39" waitingTime="0.00" waitingCount="0" stopTime="0.00" timeLoss="9.79" rerouteNo="0" devices="tripinfo_CVToC.2 routing_CVToC.2 ssm_CVToC.2 toc_CVToC.2 driverstateCVToC.2" vType="vehLVOS697" speedFactor="1.05" vaporized=""/>
    <tripinfo id="LV.3" depart="4.20" departLane="entry_0" departPos="22.95" departSpeed="37.17" departDelay="0.30" arrival="149.90" arrivalLane="e0_0" arrivalPos="4800.00" arrivalSpeed="34.94" duration="145.70" routeLength="4977.05" waitingTime="0.00" waitingCount="0" stopTime="0.00" timeLoss="11.79" rerouteNo="0" devices="tripinfo_LV.3 routing_LV.3 ssm_LV.3" vType="vehLVOS180" speedFactor="1.03" vaporized=""/>
    <tripinfo id="CAVToC.3" depart="6.00" departLane="entry_0" departPos="1.87" departSpeed="35.69" departDelay="0.30" arrival="154.20" arrivalLane="e0_0" arrivalPos="4800.00" arrivalSpeed="38.54" duration="148.20" routeLength="4998.13" waitingTime="0.00" waitingCount="0" stopTime="0.00" timeLoss="20.50" rerouteNo="0" devices="tripinfo_CAVToC.3 routing_CAVToC.3 ssm_CAVToC.3 toc_CAVToC.3 driverstateCAVToC.3" vType="vehLVOS277" speedFactor="1.08" vaporized=""/>
    <tripinfo id="CAVToC.4" depart="8.30" departLane="entry_0" departPos="4.02" departSpeed="33.58" departDelay="0.10" arrival="155.20" arrivalLane="e0_1" arrivalPos="4800.00" arrivalSpeed="35.79" duration="146.90" routeLength="4995.98" waitingTime="0.00" waitingCount="0" stopTime="0.00" timeLoss="7.66" rerouteNo="0" devices="tripinfo_CAVToC.4 routing_CAVToC.4 ssm_CAVToC.4 toc_CAVToC.4 driverstateCAVToC.4" vType="vehLVOS139" speedFactor="0.99" vaporized=""/>
    <tripinfo id="CAVToC.6" depart="11.90" departLane="entry_1" departPos="0.56" departSpeed="33.36" departDelay="3.20" arrival="161.70" arrivalLane="e0_1" arrivalPos="4800.00" arrivalSpeed="38.78" duration="149.80" routeLength="4999.44" waitingTime="0.00" waitingCount="0" stopTime="0.00" timeLoss="21.14" rerouteNo="0" devices="tripinfo_CAVToC.6 routing_CAVToC.6 ssm_CAVToC.6 toc_CAVToC.6 driverstateCAVToC.6" vType="vehLVOS168" speedFactor="1.08" vaporized=""/>
    <tripinfo id="CVToC.3" depart="13.20" departLane="entry_0" departPos="8.58" departSpeed="33.24" departDelay="4.70" arrival="163.50" arrivalLane="e0_1" arrivalPos="4800.00" arrivalSpeed="37.61" duration="150.30" routeLength="4991.42" waitingTime="0.00" waitingCount="0" stopTime="0.00" timeLoss="17.51" rerouteNo="0" devices="tripinfo_CVToC.3 routing_CVToC.3 ssm_CVToC.3 toc_CVToC.3 driverstateCVToC.3" vType="vehLVOS19" speedFactor="1.04" vaporized=""/>
    <tripinfo id="CAVToC.5" depart="9.60" departLane="entry_1" departPos="7.53" departSpeed="32.64" departDelay="1.20" arrival="165.00" arrivalLane="e0_0" arrivalPos="4800.00" arrivalSpeed="32.63" duration="155.40" routeLength="4992.47" waitingTime="0.00" waitingCount="0" stopTime="0.00" timeLoss="2.39" rerouteNo="0" devices="tripinfo_CAVToC.5 routing_CAVToC.5 ssm_CAVToC.5 toc_CAVToC.5 driverstateCAVToC.5" vType="vehLVOS491" speedFactor="0.90" vaporized=""/>
    <tripinfo id="CVToC.4" depart="10.70" departLane="entry_0" departPos="7.67" departSpeed="33.32" departDelay="1.40" arrival="165.90" arrivalLane="e0_1" arrivalPos="4800.00" arrivalSpeed="34.93" duration="155.20" routeLength="4992.33" waitingTime="0.00" waitingCount="0" stopTime="0.00" timeLoss="12.57" rerouteNo="0" devices="tripinfo_CVToC.4 routing_CVToC.4 ssm_CVToC.4 toc_CVToC.4 driverstateCVToC.4" vType="vehLVOS20" speedFactor="0.97" vaporized=""/>
    <tripinfo id="CVToC.6" depart="13.80" departLane="entry_1" departPos="3.27" departSpeed="29.80" departDelay="1.50" arrival="181.50" arrivalLane="e0_1" arrivalPos="4800.00" arrivalSpeed="29.79" duration="167.70" routeLength="4996.73" waitingTime="0.00" waitingCount="0" stopTime="0.00" timeLoss="0.03" rerouteNo="0" devices="tripinfo_CVToC.6 routing_CVToC.6 ssm_CVToC.6 toc_CVToC.6 driverstateCVToC.6" vType="vehLVOS853" speedFactor="0.83" vaporized=""/>
    <tripinfo id="CVToC.5" depart="15.50" departLane="entry_0" departPos="16.32" departSpeed="33.29" departDelay="4.80" arrival="182.70" arrivalLane="e0_0" arrivalPos="4800.00" arrivalSpeed="30.72" duration="167.20" routeLength="4983.68" waitingTime="0.00" waitingCount="0" stopTime="0.00" timeLoss="19.18" rerouteNo="0" devices="tripinfo_CVToC.5 routing_CVToC.5 ssm_CVToC.5 toc_CVToC.5 driverstateCVToC.5" vType="vehLVOS863" speedFactor="0.93" vaporized=""/>
    <tripinfo id="CVToC.7" depart="16.50" departLane="entry_1" departPos="4.35" departSpeed="30.63" departDelay="0.90" arrival="184.30" arrivalLane="e0_1" arrivalPos="4800.00" arrivalSpeed="34.93" duration="167.80" routeLength="4995.65" waitingTime="0.00" waitingCount="0" stopTime="0.00" timeLoss="32.74" rerouteNo="0" devices="tripinfo_CVToC.7 routing_CVToC.7 ssm_CVToC.7 toc_CVToC.7 driverstateCVToC.7" vType="vehLVOS138" speedFactor="1.02" vaporized=""/>
    <tripinfo id="CAVToC.7" depart="17.90" departLane="entry_0" departPos="8.73" departSpeed="30.61" departDelay="2.60" arrival="186.40" arrivalLane="e0_0" arrivalPos="4800.00" arrivalSpeed="33.96" duration="168.50" routeLength="4991.27" waitingTime="0.00" waitingCount="0" stopTime="0.00" timeLoss="32.19" rerouteNo="0" devices="tripinfo_CAVToC.7 routing_CAVToC.7 ssm_CAVToC.7 toc_CAVToC.7 driverstateCAVToC.7" vType="vehLVOS224" speedFactor="1.01" vaporized=""/>
    <tripinfo id="CVToC.8" depart="19.00" departLane="entry_1" departPos="4.70" departSpeed="30.96" departDelay="2.20" arrival="187.70" arrivalLane="e0_1" arrivalPos="4800.00" arrivalSpeed="34.08" duration="168.70" routeLength="4995.30" waitingTime="0.00" waitingCount="0" stopTime="0.00" timeLoss="22.13" rerouteNo="0" devices="tripinfo_CVToC.8 routing_CVToC.8 ssm_CVToC.8 toc_CVToC.8 driverstateCVToC.8" vType="vehLVOS986" speedFactor="0.94" vaporized=""/>
    <tripinfo id="LV.4" depart="23.50" departLane="entry_1" departPos="2.43" departSpeed="33.74" departDelay="13.40" arrival="189.90" arrivalLane="e0_1" arrivalPos="4800.00" arrivalSpeed="33.70" duration="166.40" routeLength="4997.57" waitingTime="0.00" waitingCount="0" stopTime="0.00" timeLoss="18.26" rerouteNo="0" devices="tripinfo_LV.4 routing_LV.4 ssm_LV.4" vType="vehLVOS826" speedFactor="0.93" vaporized=""/>
    <tripinfo id="LV.5" depart="25.20" departLane="entry_0" departPos="3.30" departSpeed="40.06" departDelay="11.00" arrival="191.40" arrivalLane="e0_1" arrivalPos="4800.00" arrivalSpeed="36.37" duration="166.20" routeLength="4996.70" waitingTime="0.00" waitingCount="0" stopTime="0.00" timeLoss="41.46" rerouteNo="0" devices="tripinfo_LV.5 routing_LV.5 ssm_LV.5" vType="vehLVOS198" speedFactor="1.11" vaporized=""/>
    <tripinfo id="CAVToC.9" depart="20.70" departLane="entry_0" departPos="7.63" departSpeed="31.49" departDelay="0.60" arrival="191.50" arrivalLane="e0_0" arrivalPos="4800.00" arrivalSpeed="35.18" duration="170.80" routeLength="4992.37" waitingTime="0.00" waitingCount="0" stopTime="0.00" timeLoss="45.45" rerouteNo="0" devices="tripinfo_CAVToC.9 routing_CAVToC.9 ssm_CAVToC.9 toc_CAVToC.9 driverstateCAVToC.9" vType="vehLVOS610" speedFactor="1.10" vaporized=""/>
    <tripinfo id="CAVToC.8" depart="26.20" departLane="entry_1" departPos="0.56" departSpeed="33.40" departDelay="9.30" arrival="193.00" arrivalLane="e0_1" arrivalPos="4800.00" arrivalSpeed="38.78" duration="166.80" routeLength="4999.44" waitingTime="0.00" waitingCount="0" stopTime="0.00" timeLoss="50.22" rerouteNo="0" devices="tripinfo_CAVToC.8 routing_CAVToC.8 ssm_CAVToC.8 toc_CAVToC.8 driverstateCAVToC.8" vType="vehLVOS768" speedFactor="1.19" vaporized=""/>
    <tripinfo id="LV.7" depart="28.10" departLane="entry_0" departPos="12.69" departSpeed="40.43" departDelay="1.70" arrival="193.50" arrivalLane="e0_0" arrivalPos="4800.00" arrivalSpeed="37.83" duration="165.40" routeLength="4987.31" waitingTime="0.00" waitingCount="0" stopTime="0.00" timeLoss="41.97" rerouteNo="0" devices="tripinfo_LV.7 routing_LV.7 ssm_LV.7" vType="vehLVOS383" speedFactor="1.12" vaporized=""/>
    <tripinfo id="CAVToC.10" depart="28.70" departLane="entry_1" departPos="5.89" departSpeed="33.39" departDelay="1.90" arrival="194.80" arrivalLane="e0_1" arrivalPos="4800.00" arrivalSpeed="35.21" duration="166.10" routeLength="4994.11" waitingTime="0.00" waitingCount="0" stopTime="0.00" timeLoss="24.26" rerouteNo="0" devices="tripinfo_CAVToC.10 routing_CAVToC.10 ssm_CAVToC.10 toc_CAVToC.10 driverstateCAVToC.10" vType="vehLVOS914" speedFactor="0.98" vaporized=""/>
    <tripinfo id="CAVToC.11" depart="30.90" departLane="entry_1" departPos="3.01" departSpeed="33.42" departDelay="2.90" arrival="196.20" arrivalLane="e0_1" arrivalPos="4800.00" arrivalSpeed="35.17" duration="165.30" routeLength="4996.99" waitingTime="0.00" waitingCount="0" stopTime="0.00" timeLoss="23.21" rerouteNo="0" devices="tripinfo_CAVToC.11 routing_CAVToC.11 ssm_CAVToC.11 toc_CAVToC.11 driverstateCAVToC.11" vType="vehLVOS892" speedFactor="0.97" vaporized=""/>
    <tripinfo id="CAVToC.13" depart="33.50" departLane="entry_1" departPos="5.78" departSpeed="33.92" departDelay="1.90" arrival="198.10" arrivalLane="e0_1" arrivalPos="4800.00" arrivalSpeed="39.00" duration="164.60" routeLength="4994.22" waitingTime="0.00" waitingCount="0" stopTime="0.00" timeLoss="41.04" rerouteNo="0" devices="tripinfo_CAVToC.13 routing_CAVToC.13 ssm_CAVToC.13 toc_CAVToC.13 driverstateCAVToC.13" vType="vehLVOS292" speedFactor="1.12" vaporized=""/>
    <tripinfo id="CVToC.9" depart="29.90" departLane="entry_0" departPos="0.59" departSpeed="35.49" departDelay="2.80" arrival="198.50" arrivalLane="e0_0" arrivalPos="4800.00" arrivalSpeed="36.00" duration="168.60" routeLength="4999.41" waitingTime="0.00" waitingCount="0" stopTime="0.00" timeLoss="29.68" rerouteNo="0" devices="tripinfo_CVToC.9 routing_CVToC.9 ssm_CVToC.9 toc_CVToC.9 driverstateCVToC.9" vType="vehLVOS477" speedFactor="1.00" vaporized=""/>
    <tripinfo id="CVToC.12" depart="36.00" departLane="entry_1" departPos="17.90" departSpeed="33.86" departDelay="3.50" arrival="199.90" arrivalLane="e0_1" arrivalPos="4800.00" arrivalSpeed="35.11" duration="163.90" routeLength="4982.10" waitingTime="0.00" waitingCount="0" stopTime="0.00" timeLoss="21.95" rerouteNo="0" devices="tripinfo_CVToC.12 routing_CVToC.12 ssm_CVToC.12 toc_CVToC.12 driverstateCVToC.12" vType="vehLVOS461" speedFactor="0.97" vaporized=""/>
    <tripinfo id="CAVToC.12" depart="32.10" departLane="entry_0" departPos="3.65" departSpeed="33.17" departDelay="2.50" arrival="200.20" arrivalLane="e0_0" arrivalPos="4800.00" arrivalSpeed="34.26" duration="168.10" routeLength="4996.35" waitingTime="0.00" waitingCount="0" stopTime="0.00" timeLoss="22.67" rerouteNo="0" devices="tripinfo_CAVToC.12 routing_CAVToC.12 ssm_CAVToC.12 toc_CAVToC.12 driverstateCAVToC.12" vType="vehLVOS374" speedFactor="0.95" vaporized=""/>
    <tripinfo id="CVToC.10" depart="38.40" departLane="entry_1" departPos="14.61" departSpeed="34.17" departDelay="7.60" arrival="201.20" arrivalLane="e0_1" arrivalPos="4800.00" arrivalSpeed="37.99" duration="162.80" routeLength="4985.39" waitingTime="0.00" waitingCount="0" stopTime="0.00" timeLoss="33.36" rerouteNo="0" devices="tripinfo_CVToC.10 routing_CVToC.10 ssm_CVToC.10 toc_CVToC.10 driverstateCVToC.10" vType="vehLVOS51" speedFactor="1.07" vaporized=""/>
    <tripinfo id="CAVToC.14" depart="34.80" departLane="entry_0" departPos="10.74" departSpeed="33.49" departDelay="1.70" arrival="201.40" arrivalLane="e0_0" arrivalPos="4800.00" arrivalSpeed="36.72" duration="166.60" routeLength="4989.26" waitingTime="0.00" waitingCount="0" stopTime="0.00" timeLoss="34.61" rerouteNo="0" devices="tripinfo_CAVToC.14 routing_CAVToC.14 ssm_CAVToC.14 toc_CAVToC.14 driverstateCAVToC.14" vType="vehLVOS271" speedFactor="1.05" vaporized=""/>
    <tripinfo id="CVToC.13" depart="38.10" departLane="entry_0" departPos="40.49" departSpeed="33.66" departDelay="4.00" arrival="202.10" arrivalLane="e0_0" arrivalPos="4800.00" arrivalSpeed="37.57" duration="164.00" routeLength="4959.51" waitingTime="0.00" waitingCount="0" stopTime="0.00" timeLoss="33.38" rerouteNo="0" devices="tripinfo_CVToC.13 routing_CVToC.13 ssm_CVToC.13 toc_CVToC.13 driverstateCVToC.13" vType="vehLVOS666" speedFactor="1.05" vaporized=""/>
    <tripinfo id="LV.6" depart="40.30" departLane="entry_1" departPos="0.04" departSpeed="37.17" departDelay="24.60" arrival="203.30" arrivalLane="e0_1" arrivalPos="4800.00" arrivalSpeed="37.16" duration="163.00" routeLength="4999.96" waitingTime="0.00" waitingCount="0" stopTime="0.00" timeLoss="28.42" rerouteNo="0" devices="tripinfo_LV.6 routing_LV.6 ssm_LV.6" vType="vehLVOS298" speedFactor="1.03" vaporized=""/>
    <tripinfo id="LV.9" depart="42.50" departLane="entry_1" departPos="5.39" departSpeed="37.38" departDelay="5.20" arrival="205.10" arrivalLane="e0_1" arrivalPos="4800.00" arrivalSpeed="37.38" duration="162.60" routeLength="4994.61" waitingTime="0.00" waitingCount="0" stopTime="0.00" timeLoss="28.98" rerouteNo="0" devices="tripinfo_LV.9 routing_LV.9 ssm_LV.9" vType="vehLVOS736" speedFactor="1.04" vaporized=""/>
    <tripinfo id="CAVToC.16" depart="44.60" departLane="entry_1" departPos="12.99" departSpeed="33.50" departDelay="6.50" arrival="206.50" arrivalLane="e0_0" arrivalPos="4800.00" arrivalSpeed="33.44" duration="161.90" routeLength="4987.01" waitingTime="0.00" waitingCount="0" stopTime="0.00" timeLoss="13.01" rerouteNo="0" devices="tripinfo_CAVToC.16 routing_CAVToC.16 ssm_CAVToC.16 toc_CAVToC.16 driverstateCAVToC.16" vType="vehLVOS961" speedFactor="0.93" vaporized=""/>
    <tripinfo id="CAVToC.15" depart="39.70" departLane="entry_0" departPos="31.48" departSpeed="30.33" departDelay="4.90" arrival="207.50" arrivalLane="e0_0" arrivalPos="4800.00" arrivalSpeed="30.24" duration="167.80" routeLength="4968.52" waitingTime="0.00" waitingCount="0" stopTime="0.00" timeLoss="3.88" rerouteNo="0" devices="tripinfo_CAVToC.15 routing_CAVToC.15 ssm_CAVToC.15 toc_CAVToC.15 driverstateCAVToC.15" vType="vehLVOS235" speedFactor="0.84" vaporized=""/>
    <tripinfo id="LV.11" depart="45.90" departLane="entry_1" departPos="31.55" departSpeed="32.80" departDelay="1.30" arrival="207.70" arrivalLane="e0_1" arrivalPos="4800.00" arrivalSpeed="32.69" duration="161.80" routeLength="4968.45" waitingTime="0.00" waitingCount="0" stopTime="0.00" timeLoss="10.30" rerouteNo="0" devices="tripinfo_LV.11 routing_LV.11 ssm_LV.11" vType="vehLVOS731" speedFactor="0.91" vaporized=""/>
    <tripinfo id="CAVToC.17" depart="41.40" departLane="entry_0" departPos="10.71" departSpeed="30.84" departDelay="3.20" arrival="208.40" arrivalLane="e0_0" arrivalPos="4800.00" arrivalSpeed="31.42" duration="167.00" routeLength="4989.29" waitingTime="0.00" waitingCount="0" stopTime="0.00" timeLoss="22.28" rerouteNo="0" devices="tripinfo_CAVToC.17 routing_CAVToC.17 ssm_CAVToC.17 toc_CAVToC.17 driverstateCAVToC.17" vType="vehLVOS13" speedFactor="0.96" vaporized=""/>
    <tripinfo id="CVToC.15" depart="47.40" departLane="entry_1" departPos="6.64" departSpeed="32.66" departDelay="2.80" arrival="210.90" arrivalLane="e0_1" arrivalPos="4800.00" arrivalSpeed="33.30" duration="163.50" routeLength="4993.36" waitingTime="0.00" waitingCount="0" stopTime="0.00" timeLoss="13.59" rerouteNo="0" devices="tripinfo_CVToC.15 routing_CVToC.15 ssm_CVToC.15 toc_CVToC.15 driverstateCVToC.15" vType="vehLVOS719" speedFactor="0.92" vaporized=""/>
    <tripinfo id="CVToC.14" depart="43.70" departLane="entry_0" departPos="1.01" departSpeed="31.38" departDelay="7.80" arrival="211.80" arrivalLane="e0_0" arrivalPos="4800.00" arrivalSpeed="34.73" duration="168.10" routeLength="4998.99" waitingTime="0.00" waitingCount="0" stopTime="0.00" timeLoss="31.29" rerouteNo="0" devices="tripinfo_CVToC.14 routing_CVToC.14 ssm_CVToC.14 toc_CVToC.14 driverstateCVToC.14" vType="vehLVOS95" speedFactor="1.01" vaporized=""/>
    <tripinfo id="LV.10" depart="46.00" departLane="entry_0" departPos="11.77" departSpeed="33.70" departDelay="8.60" arrival="212.20" arrivalLane="e0_1" arrivalPos="4800.00" arrivalSpeed="33.68" duration="166.20" routeLength="4988.23" waitingTime="0.00" waitingCount="0" stopTime="0.00" timeLoss="18.08" rerouteNo="0" devices="tripinfo_LV.10 routing_LV.10 ssm_LV.10" vType="vehLVOS523" speedFactor="0.93" vaporized=""/>
    <tripinfo id="CAVToC.18" depart="49.70" departLane="entry_1" departPos="2.03" departSpeed="33.19" departDelay="4.50" arrival="213.20" arrivalLane="e0_1" arrivalPos="4800.00" arrivalSpeed="35.18" duration="163.50" routeLength="4997.97" waitingTime="0.00" waitingCount="0" stopTime="0.00" timeLoss="27.23" rerouteNo="0" devices="tripinfo_CAVToC.18 routing_CAVToC.18 ssm_CAVToC.18 toc_CAVToC.18 driverstateCAVToC.18" vType="vehLVOS793" speedFactor="1.02" vaporized=""/>
    <tripinfo id="CVToC.11" depart="48.10" departLane="entry_0" departPos="3.11" departSpeed="33.05" departDelay="16.00" arrival="213.60" arrivalLane="e0_0" arrivalPos="4800.00" arrivalSpeed="35.55" duration="165.50" routeLength="4996.89" waitingTime="0.00" waitingCount="0" stopTime="0.00" timeLoss="31.62" rerouteNo="0" devices="tripinfo_CVToC.11 routing_CVToC.11 ssm_CVToC.11 toc_CVToC.11 driverstateCVToC.11" vType="vehLVOS842" speedFactor="1.03" vaporized=""/>
    <tripinfo id="CVToC.17" depart="53.30" departLane="entry_1" departPos="40.49" departSpeed="33.66" departDelay="7.40" arrival="214.90" arrivalLane="e0_1" arrivalPos="4800.00" arrivalSpeed="37.11" duration="161.60" routeLength="4959.51" waitingTime="0.00" waitingCount="0" stopTime="0.00" timeLoss="28.23" rerouteNo="0" devices="tripinfo_CVToC.17 routing_CVToC.17 ssm_CVToC.17 toc_CVToC.17 driverstateCVToC.17" vType="vehLVOS168" speedFactor="1.03" vaporized=""/>
    <tripinfo id="CVToC.16" depart="50.80" departLane="entry_0" departPos="5.57" departSpeed="33.51" departDelay="5.20" arrival="215.40" arrivalLane="e0_0" arrivalPos="4800.00" arrivalSpeed="36.98" duration="164.60" routeLength="4994.43" waitingTime="0.00" waitingCount="0" stopTime="0.00" timeLoss="39.31" rerouteNo="0" devices="tripinfo_CVToC.16 routing_CVToC.16 ssm_CVToC.16 toc_CVToC.16 driverstateCVToC.16" vType="vehLVOS240" speedFactor="1.10" vaporized=""/>
    <tripinfo id="CVToC.18" depart="53.20" departLane="entry_0" departPos="4.81" departSpeed="33.39" departDelay="0.00" arrival="216.90" arrivalLane="e0_0" arrivalPos="4800.00" arrivalSpeed="37.74" duration="163.70" routeLength="4995.19" waitingTime="0.00" waitingCount="0" stopTime="0.00" timeLoss="33.94" rerouteNo="0" devices="tripinfo_CVToC.18 routing_CVToC.18 ssm_CVToC.18 toc_CVToC.18 driverstateCVToC.18" vType="vehLVOS102" speedFactor="1.07" vaporized=""/>
    <tripinfo id="CVToC.19" depart="54.80" departLane="entry_1" departPos="0.20" departSpeed="34.64" departDelay="0.60" arrival="218.60" arrivalLane="e0_1" arrivalPos="4800.00" arrivalSpeed="40.87" duration="163.80" routeLength="4999.80" waitingTime="0.00" waitingCount="0" stopTime="0.00" timeLoss="48.80" rerouteNo="0" devices="tripinfo_CVToC.19 routing_CVToC.19 ssm_CVToC.19 toc_CVToC.19 driverstateCVToC.19" vType="vehLVOS226" speedFactor="1.20" vaporized=""/>
    <tripinfo id="CVToC.20" depart="57.20" departLane="entry_1" departPos="4.35" departSpeed="34.74" departDelay="0.40" arrival="220.00" arrivalLane="e0_1" arrivalPos="4800.00" arrivalSpeed="36.44" duration="162.80" routeLength="4995.65" waitingTime="0.00" waitingCount="0" stopTime="0.00" timeLoss="25.66" rerouteNo="0" devices="tripinfo_CVToC.20 routing_CVToC.20 ssm_CVToC.20 toc_CVToC.20 driverstateCVToC.20" vType="vehLVOS975" speedFactor="1.01" vaporized=""/>
    <tripinfo id="LV.13" depart="55.50" departLane="entry_0" departPos="47.23" departSpeed="32.36" departDelay="0.70" arrival="220.30" arrivalLane="e0_0" arrivalPos="4800.00" arrivalSpeed="32.36" duration="164.80" routeLength="4952.77" waitingTime="0.00" waitingCount="0" stopTime="0.00" timeLoss="11.67" rerouteNo="0" devices="tripinfo_LV.13 routing_LV.13 ssm_LV.13" vType="vehLVOS73" speedFactor="0.90" vaporized=""/>
    <tripinfo id="CAVToC.19" depart="59.60" departLane="entry_1" departPos="2.15" departSpeed="35.07" departDelay="2.50" arrival="220.90" arrivalLane="e0_1" arrivalPos="4800.00" arrivalSpeed="37.47" duration="161.30" routeLength="4997.85" waitingTime="0.00" waitingCount="0" stopTime="0.00" timeLoss="31.99" rerouteNo="0" devices="tripinfo_CAVToC.19 routing_CAVToC.19 ssm_CAVToC.19 toc_CAVToC.19 driverstateCAVToC.19" vType="vehLVOS999" speedFactor="1.07" vaporized=""/>
    <tripinfo id="CAVToC.20" depart="63.50" departLane="entry_1" departPos="71.06" departSpeed="32.24" departDelay="2.70" arrival="223.10" arrivalLane="e0_0" arrivalPos="4800.00" arrivalSpeed="32.16" duration="159.60" routeLength="4928.94" waitingTime="0.00" waitingCount="0" stopTime="0.00" timeLoss="6.68" rerouteNo="0" devices="tripinfo_CAVToC.20 routing_CAVToC.20 ssm_CAVToC.20 toc_CAVToC.20 driverstateCAVToC.20" vType="vehLVOS477" speedFactor="0.89" vaporized=""/>
    <tripinfo id="CAVToC.21" depart="65.50" departLane="entry_1" departPos="58.62" departSpeed="32.85" departDelay="4.20" arrival="225.10" arrivalLane="e0_1" arrivalPos="4800.00" arrivalSpeed="34.70" duration="159.60" routeLength="4941.38" waitingTime="0.00" waitingCount="0" stopTime="0.00" timeLoss="27.70" rerouteNo="0" devices="tripinfo_CAVToC.21 routing_CAVToC.21 ssm_CAVToC.21 toc_CAVToC.21 driverstateCAVToC.21" vType="vehLVOS288" speedFactor="1.04" vaporized=""/>
    <tripinfo id="LV.14" depart="56.10" departLane="entry_0" departPos="11.01" departSpeed="30.21" departDelay="0.90" arrival="225.70" arrivalLane="e0_0" arrivalPos="4800.00" arrivalSpeed="30.19" duration="169.60" routeLength="4988.99" waitingTime="0.00" waitingCount="0" stopTime="0.00" timeLoss="4.40" rerouteNo="0" devices="tripinfo_LV.14 routing_LV.14 ssm_LV.14" vType="vehLVOS392" speedFactor="0.84" vaporized=""/>
    <tripinfo id="CVToC.21" depart="58.60" departLane="entry_0" departPos="5.81" departSpeed="31.04" departDelay="1.70" arrival="226.60" arrivalLane="e0_0" arrivalPos="4800.00" arrivalSpeed="31.34" duration="168.00" routeLength="4994.19" waitingTime="0.00" waitingCount="0" stopTime="0.00" timeLoss="35.86" rerouteNo="0" devices="tripinfo_CVToC.21 routing_CVToC.21 ssm_CVToC.21 toc_CVToC.21 driverstateCVToC.21" vType="vehLVOS510" speedFactor="1.05" vaporized=""/>
    <tripinfo id="LV.12" depart="67.00" departLane="entry_1" departPos="4.78" departSpeed="33.74" departDelay="17.60" arrival="227.20" arrivalLane="e0_1" arrivalPos="4800.00" arrivalSpeed="33.72" duration="160.20" routeLength="4995.22" waitingTime="0.00" waitingCount="0" stopTime="0.00" timeLoss="12.11" rerouteNo="0" devices="tripinfo_LV.12 routing_LV.12 ssm_LV.12" vType="vehLVOS592" speedFactor="0.93" vaporized=""/>
    <tripinfo id="CVToC.23" depart="64.20" departLane="entry_0" departPos="0.73" departSpeed="32.97" departDelay="3.00" arrival="228.70" arrivalLane="e0_1" arrivalPos="4800.00" arrivalSpeed="35.71" duration="164.50" routeLength="4999.27" waitingTime="0.00" waitingCount="0" stopTime="0.00" timeLoss="40.41" rerouteNo="0" devices="tripinfo_CVToC.23 routing_CVToC.23 ssm_CVToC.23 toc_CVToC.23 driverstateCVToC.23" vType="vehLVOS789" speedFactor="1.12" vaporized=""/>
    <tripinfo id="CVToC.22" depart="62.10" departLane="entry_0" departPos="19.52" departSpeed="32.22" departDelay="4.30" arrival="229.60" arrivalLane="e0_0" arrivalPos="4800.00" arrivalSpeed="35.21" duration="167.50" routeLength="4980.48" waitingTime="0.00" waitingCount="0" stopTime="0.00" timeLoss="52.54" rerouteNo="0" devices="tripinfo_CVToC.22 routing_CVToC.22 ssm_CVToC.22 toc_CVToC.22 driverstateCVToC.22" vType="vehLVOS359" speedFactor="1.20" vaporized=""/>
    <tripinfo id="CVToC.24" depart="66.90" departLane="entry_0" departPos="4.28" departSpeed="30.81" departDelay="5.10" arrival="231.00" arrivalLane="e0_1" arrivalPos="4800.00" arrivalSpeed="36.02" duration="164.10" routeLength="4995.72" waitingTime="0.00" waitingCount="0" stopTime="0.00" timeLoss="27.72" rerouteNo="0" devices="tripinfo_CVToC.24 routing_CVToC.24 ssm_CVToC.24 toc_CVToC.24 driverstateCVToC.24" vType="vehLVOS644" speedFactor="1.01" vaporized=""/>
    <tripinfo id="CVToC.26" depart="74.80" departLane="entry_1" departPos="37.78" departSpeed="31.60" departDelay="9.30" arrival="231.90" arrivalLane="e0_1" arrivalPos="4800.00" arrivalSpeed="35.75" duration="157.10" routeLength="4962.22" waitingTime="0.00" waitingCount="0" stopTime="0.00" timeLoss="18.25" rerouteNo="0" devices="tripinfo_CVToC.26 routing_CVToC.26 ssm_CVToC.26 toc_CVToC.26 driverstateCVToC.26" vType="vehLVOS329" speedFactor="0.99" vaporized=""/>