<?xml version="1.0" encoding="UTF-8"?>

<!-- generated on Sat Jun 13 15:39:43 2020 by Eclipse SUMO Version v1_6_0+0553-a03471b
<configuration xmlns:xsi="http://www.w3.org/2001/XMLSchema-instance" xsi:noNamespaceSchemaLocation="http://sumo.dlr.de/xsd/sumoConfiguration.xsd">

    <input>
        <net-file value="scenario/UC5_1.net.xml"/>
        <route-files value="scenario/routes_trafficMix_0_trafficDemand_1_driverBehaviour_OS_seed_0.xml"/>
        <additional-files value="scenario/additionalsOutput_trafficMix_0_trafficDemand_1_driverBehaviour_OS_seed_0.xml,scenario/vTypesCAVToC_OS.add.xml,scenario/vTypesCVToC_OS.add.xml,scenario/vTypesLV_OS.add.xml,scenario/shapes.add.xml,scenario/view.add.xml"/>
    </input>

    <output>
        <tripinfo-output value="/home/noul_ar/workspace/tor-distribution/outputs/simulations/dnq_sample3015.zip_20200613-143151/tripinfo_10.xml"/>
    </output>

    <time>
        <step-length value="0.1"/>
    </time>

    <processing>
        <step-method.ballistic value="true"/>
        <ignore-route-errors value="true"/>
        <lanechange.duration value="2.5"/>
    </processing>

    <report>
        <no-step-log value="true"/>
    </report>

    <toc_device>
        <device.toc.ogNewTimeHeadway value="100"/>
        <device.toc.ogNewSpaceHeadway value="5"/>
        <device.toc.ogMaxDecel value="1"/>
        <device.toc.ogChangeRate value="1"/>
    </toc_device>

    <traci_server>
        <remote-port value="43223"/>
    </traci_server>

    <random_number>
        <seed value="1034"/>
    </random_number>

    <gui_only>
        <tracker-interval value="0.1"/>
    </gui_only>

</configuration>
-->

<tripinfos xmlns:xsi="http://www.w3.org/2001/XMLSchema-instance" xsi:noNamespaceSchemaLocation="http://sumo.dlr.de/xsd/tripinfo_file.xsd">
    <tripinfo id="CAVToC.0" depart="0.40" departLane="entry_1" departPos="199.90" departSpeed="38.23" departDelay="0.00" arrival="126.00" arrivalLane="e0_0" arrivalPos="4800.00" arrivalSpeed="38.23" duration="125.60" routeLength="4800.10" waitingTime="0.00" waitingCount="0" stopTime="0.00" timeLoss="0.00" rerouteNo="0" devices="tripinfo_CAVToC.0 routing_CAVToC.0 ssm_CAVToC.0 toc_CAVToC.0 driverstateCAVToC.0" vType="vehLVOS19" speedFactor="1.06" vaporized=""/>
    <tripinfo id="LV.0" depart="0.30" departLane="entry_0" departPos="199.90" departSpeed="37.20" departDelay="0.00" arrival="129.40" arrivalLane="e0_0" arrivalPos="4800.00" arrivalSpeed="37.19" duration="129.10" routeLength="4800.10" waitingTime="0.00" waitingCount="0" stopTime="0.00" timeLoss="0.07" rerouteNo="0" devices="tripinfo_LV.0 routing_LV.0 ssm_LV.0" vType="vehLVOS597" speedFactor="1.03" vaporized=""/>
    <tripinfo id="CVToC.0" depart="1.60" departLane="entry_0" departPos="175.80" departSpeed="34.44" departDelay="0.00" arrival="142.20" arrivalLane="e0_0" arrivalPos="4800.00" arrivalSpeed="34.22" duration="140.60" routeLength="4824.20" waitingTime="0.00" waitingCount="0" stopTime="0.00" timeLoss="0.44" rerouteNo="0" devices="tripinfo_CVToC.0 routing_CVToC.0 ssm_CVToC.0 toc_CVToC.0 driverstateCVToC.0" vType="vehLVOS869" speedFactor="0.95" vaporized=""/>
    <tripinfo id="CAVToC.1" depart="0.70" departLane="entry_1" departPos="141.00" departSpeed="34.09" departDelay="0.00" arrival="143.40" arrivalLane="e0_1" arrivalPos="4800.00" arrivalSpeed="34.08" duration="142.70" routeLength="4859.00" waitingTime="0.00" waitingCount="0" stopTime="0.00" timeLoss="0.11" rerouteNo="0" devices="tripinfo_CAVToC.1 routing_CAVToC.1 ssm_CAVToC.1 toc_CAVToC.1 driverstateCAVToC.1" vType="vehLVOS85" speedFactor="0.94" vaporized=""/>
    <tripinfo id="LV.1" depart="2.50" departLane="entry_0" departPos="86.22" departSpeed="42.96" departDelay="0.00" arrival="144.50" arrivalLane="e0_1" arrivalPos="4800.00" arrivalSpeed="36.86" duration="142.00" routeLength="4913.78" waitingTime="0.00" waitingCount="0" stopTime="0.00" timeLoss="27.61" rerouteNo="0" devices="tripinfo_LV.1 routing_LV.1 ssm_LV.1" vType="vehLVOS538" speedFactor="1.19" vaporized=""/>
    <tripinfo id="CVToC.1" depart="5.10" departLane="entry_1" departPos="5.60" departSpeed="35.42" departDelay="1.00" arrival="145.50" arrivalLane="e0_0" arrivalPos="4800.00" arrivalSpeed="39.24" duration="140.40" routeLength="4994.40" waitingTime="0.00" waitingCount="0" stopTime="0.00" timeLoss="30.30" rerouteNo="0" devices="tripinfo_CVToC.1 routing_CVToC.1 ssm_CVToC.1 toc_CVToC.1 driverstateCVToC.1" vType="vehLVOS77" speedFactor="1.26" vaporized=""/>
    <tripinfo id="LV.3" depart="4.20" departLane="entry_0" departPos="22.95" departSpeed="37.17" departDelay="0.30" arrival="145.90" arrivalLane="e0_1" arrivalPos="4800.00" arrivalSpeed="37.17" duration="141.70" routeLength="4977.05" waitingTime="0.00" waitingCount="0" stopTime="0.00" timeLoss="7.78" rerouteNo="0" devices="tripinfo_LV.3 routing_LV.3 ssm_LV.3" vType="vehLVOS180" speedFactor="1.03" vaporized=""/>
    <tripinfo id="CVToC.2" depart="7.40" departLane="entry_1" departPos="1.61" departSpeed="34.25" departDelay="0.80" arrival="147.20" arrivalLane="e0_1" arrivalPos="4800.00" arrivalSpeed="37.75" duration="139.80" routeLength="4998.39" waitingTime="0.00" waitingCount="0" stopTime="0.00" timeLoss="7.41" rerouteNo="0" devices="tripinfo_CVToC.2 routing_CVToC.2 ssm_CVToC.2 toc_CVToC.2 driverstateCVToC.2" vType="vehLVOS697" speedFactor="1.05" vaporized=""/>
    <tripinfo id="CAVToC.2" depart="2.20" departLane="entry_1" departPos="120.38" departSpeed="33.71" departDelay="0.00" arrival="148.80" arrivalLane="e0_0" arrivalPos="4800.00" arrivalSpeed="33.69" duration="146.60" routeLength="4879.62" waitingTime="0.00" waitingCount="0" stopTime="0.00" timeLoss="1.75" rerouteNo="0" devices="tripinfo_CAVToC.2 routing_CAVToC.2 ssm_CAVToC.2 toc_CAVToC.2 driverstateCAVToC.2" vType="vehLVOS9" speedFactor="0.93" vaporized=""/>
    <tripinfo id="LV.2" depart="2.60" departLane="entry_0" departPos="12.74" departSpeed="38.13" departDelay="0.00" arrival="150.10" arrivalLane="e0_1" arrivalPos="4800.00" arrivalSpeed="38.13" duration="147.50" routeLength="4987.26" waitingTime="0.00" waitingCount="0" stopTime="0.00" timeLoss="16.63" rerouteNo="0" devices="tripinfo_LV.2 routing_LV.2 ssm_LV.2" vType="vehLVOS68" speedFactor="1.06" vaporized=""/>
    <tripinfo id="CAVToC.3" depart="6.00" departLane="entry_0" departPos="1.87" departSpeed="35.69" departDelay="0.30" arrival="153.30" arrivalLane="e0_0" arrivalPos="4800.00" arrivalSpeed="39.15" duration="147.30" routeLength="4998.13" waitingTime="0.00" waitingCount="0" stopTime="0.00" timeLoss="19.58" rerouteNo="0" devices="tripinfo_CAVToC.3 routing_CAVToC.3 ssm_CAVToC.3 toc_CAVToC.3 driverstateCAVToC.3" vType="vehLVOS277" speedFactor="1.08" vaporized=""/>
    <tripinfo id="CAVToC.4" depart="8.30" departLane="entry_0" departPos="4.02" departSpeed="33.58" departDelay="0.10" arrival="157.50" arrivalLane="e0_1" arrivalPos="4800.00" arrivalSpeed="35.73" duration="149.20" routeLength="4995.98" waitingTime="0.00" waitingCount="0" stopTime="0.00" timeLoss="9.90" rerouteNo="0" devices="tripinfo_CAVToC.4 routing_CAVToC.4 ssm_CAVToC.4 toc_CAVToC.4 driverstateCAVToC.4" vType="vehLVOS139" speedFactor="0.99" vaporized=""/>
    <tripinfo id="CAVToC.6" depart="11.90" departLane="entry_1" departPos="0.56" departSpeed="33.36" departDelay="3.20" arrival="159.40" arrivalLane="e0_1" arrivalPos="4800.00" arrivalSpeed="38.86" duration="147.50" routeLength="4999.44" waitingTime="0.00" waitingCount="0" stopTime="0.00" timeLoss="18.82" rerouteNo="0" devices="tripinfo_CAVToC.6 routing_CAVToC.6 ssm_CAVToC.6 toc_CAVToC.6 driverstateCAVToC.6" vType="vehLVOS168" speedFactor="1.08" vaporized=""/>
    <tripinfo id="CVToC.3" depart="13.20" departLane="entry_0" departPos="8.58" departSpeed="33.24" departDelay="4.70" arrival="160.50" arrivalLane="e0_1" arrivalPos="4800.00" arrivalSpeed="37.61" duration="147.30" routeLength="4991.42" waitingTime="0.00" waitingCount="0" stopTime="0.00" timeLoss="14.55" rerouteNo="0" devices="tripinfo_CVToC.3 routing_CVToC.3 ssm_CVToC.3 toc_CVToC.3 driverstateCVToC.3" vType="vehLVOS19" speedFactor="1.04" vaporized=""/>
    <tripinfo id="CAVToC.5" depart="9.60" departLane="entry_1" departPos="7.53" departSpeed="32.64" departDelay="1.20" arrival="162.80" arrivalLane="e0_0" arrivalPos="4800.00" arrivalSpeed="32.61" duration="153.20" routeLength="4992.47" waitingTime="0.00" waitingCount="0" stopTime="0.00" timeLoss="0.20" rerouteNo="0" devices="tripinfo_CAVToC.5 routing_CAVToC.5 ssm_CAVToC.5 toc_CAVToC.5 driverstateCAVToC.5" vType="vehLVOS491" speedFactor="0.90" vaporized=""/>
    <tripinfo id="CVToC.4" depart="10.70" departLane="entry_0" departPos="7.67" departSpeed="33.32" departDelay="1.40" arrival="163.10" arrivalLane="e0_1" arrivalPos="4800.00" arrivalSpeed="34.96" duration="152.40" routeLength="4992.33" waitingTime="0.00" waitingCount="0" stopTime="0.00" timeLoss="9.81" rerouteNo="0" devices="tripinfo_CVToC.4 routing_CVToC.4 ssm_CVToC.4 toc_CVToC.4 driverstateCVToC.4" vType="vehLVOS20" speedFactor="0.97" vaporized=""/>
    <tripinfo id="CVToC.6" depart="13.80" departLane="entry_1" departPos="3.27" departSpeed="29.80" departDelay="1.50" arrival="181.50" arrivalLane="e0_1" arrivalPos="4800.00" arrivalSpeed="29.79" duration="167.70" routeLength="4996.73" waitingTime="0.00" waitingCount="0" stopTime="0.00" timeLoss="0.03" rerouteNo="0" devices="tripinfo_CVToC.6 routing_CVToC.6 ssm_CVToC.6 toc_CVToC.6 driverstateCVToC.6" vType="vehLVOS853" speedFactor="0.83" vaporized=""/>
    <tripinfo id="CVToC.5" depart="15.50" departLane="entry_0" departPos="16.13" departSpeed="33.06" departDelay="4.80" arrival="182.90" arrivalLane="e0_0" arrivalPos="4800.00" arrivalSpeed="30.84" duration="167.40" routeLength="4983.87" waitingTime="0.00" waitingCount="0" stopTime="0.00" timeLoss="19.41" rerouteNo="0" devices="tripinfo_CVToC.5 routing_CVToC.5 ssm_CVToC.5 toc_CVToC.5 driverstateCVToC.5" vType="vehLVOS863" speedFactor="0.93" vaporized=""/>
    <tripinfo id="CVToC.7" depart="16.50" departLane="entry_1" departPos="4.35" departSpeed="30.63" departDelay="0.90" arrival="184.30" arrivalLane="e0_1" arrivalPos="4800.00" arrivalSpeed="34.67" duration="167.80" routeLength="4995.65" waitingTime="0.00" waitingCount="0" stopTime="0.00" timeLoss="32.77" rerouteNo="0" devices="tripinfo_CVToC.7 routing_CVToC.7 ssm_CVToC.7 toc_CVToC.7 driverstateCVToC.7" vType="vehLVOS138" speedFactor="1.02" vaporized=""/>
    <tripinfo id="CVToC.8" depart="19.00" departLane="entry_1" departPos="4.70" departSpeed="30.96" departDelay="2.20" arrival="187.70" arrivalLane="e0_1" arrivalPos="4800.00" arrivalSpeed="34.06" duration="168.70" routeLength="4995.30" waitingTime="0.00" waitingCount="0" stopTime="0.00" timeLoss="22.17" rerouteNo="0" devices="tripinfo_CVToC.8 routing_CVToC.8 ssm_CVToC.8 toc_CVToC.8 driverstateCVToC.8" vType="vehLVOS986" speedFactor="0.94" vaporized=""/>
    <tripinfo id="CAVToC.7" depart="17.90" departLane="entry_0" departPos="8.28" departSpeed="30.61" departDelay="2.60" arrival="188.90" arrivalLane="e0_0" arrivalPos="4800.00" arrivalSpeed="35.09" duration="171.00" routeLength="4991.72" waitingTime="0.00" waitingCount="0" stopTime="0.00" timeLoss="34.75" rerouteNo="0" devices="tripinfo_CAVToC.7 routing_CAVToC.7 ssm_CAVToC.7 toc_CAVToC.7 driverstateCAVToC.7" vType="vehLVOS224" speedFactor="1.01" vaporized=""/>
    <tripinfo id="LV.4" depart="23.50" departLane="entry_1" departPos="2.43" departSpeed="33.74" departDelay="13.40" arrival="189.90" arrivalLane="e0_1" arrivalPos="4800.00" arrivalSpeed="33.55" duration="166.40" routeLength="4997.57" waitingTime="0.00" waitingCount="0" stopTime="0.00" timeLoss="18.26" rerouteNo="0" devices="tripinfo_LV.4 routing_LV.4 ssm_LV.4" vType="vehLVOS826" speedFactor="0.93" vaporized=""/>
    <tripinfo id="CAVToC.9" depart="20.70" departLane="entry_0" departPos="7.19" departSpeed="31.49" departDelay="0.60" arrival="190.80" arrivalLane="e0_0" arrivalPos="4800.00" arrivalSpeed="35.92" duration="170.10" routeLength="4992.81" waitingTime="0.00" waitingCount="0" stopTime="0.00" timeLoss="44.65" rerouteNo="0" devices="tripinfo_CAVToC.9 routing_CAVToC.9 ssm_CAVToC.9 toc_CAVToC.9 driverstateCAVToC.9" vType="vehLVOS610" speedFactor="1.10" vaporized=""/>
    <tripinfo id="CAVToC.8" depart="26.20" departLane="entry_1" departPos="0.56" departSpeed="33.40" departDelay="9.30" arrival="191.20" arrivalLane="e0_1" arrivalPos="4800.00" arrivalSpeed="36.59" duration="165.00" routeLength="4999.44" waitingTime="0.00" waitingCount="0" stopTime="0.00" timeLoss="48.45" rerouteNo="0" devices="tripinfo_CAVToC.8 routing_CAVToC.8 ssm_CAVToC.8 toc_CAVToC.8 driverstateCAVToC.8" vType="vehLVOS768" speedFactor="1.19" vaporized=""/>
    <tripinfo id="LV.5" depart="25.20" departLane="entry_0" departPos="2.81" departSpeed="40.06" departDelay="11.00" arrival="192.30" arrivalLane="e0_0" arrivalPos="4800.00" arrivalSpeed="37.78" duration="167.10" routeLength="4997.19" waitingTime="0.00" waitingCount="0" stopTime="0.00" timeLoss="42.31" rerouteNo="0" devices="tripinfo_LV.5 routing_LV.5 ssm_LV.5" vType="vehLVOS198" speedFactor="1.11" vaporized=""/>
    <tripinfo id="CAVToC.10" depart="28.70" departLane="entry_1" departPos="5.89" departSpeed="33.39" departDelay="1.90" arrival="193.00" arrivalLane="e0_1" arrivalPos="4800.00" arrivalSpeed="35.16" duration="164.30" routeLength="4994.11" waitingTime="0.00" waitingCount="0" stopTime="0.00" timeLoss="22.43" rerouteNo="0" devices="tripinfo_CAVToC.10 routing_CAVToC.10 ssm_CAVToC.10 toc_CAVToC.10 driverstateCAVToC.10" vType="vehLVOS914" speedFactor="0.98" vaporized=""/>
    <tripinfo id="LV.7" depart="28.10" departLane="entry_0" departPos="12.55" departSpeed="40.43" departDelay="1.70" arrival="193.80" arrivalLane="e0_0" arrivalPos="4800.00" arrivalSpeed="36.50" duration="165.70" routeLength="4987.45" waitingTime="0.00" waitingCount="0" stopTime="0.00" timeLoss="42.31" rerouteNo="0" devices="tripinfo_LV.7 routing_LV.7 ssm_LV.7" vType="vehLVOS383" speedFactor="1.12" vaporized=""/>
    <tripinfo id="CAVToC.11" depart="30.90" departLane="entry_1" departPos="3.01" departSpeed="33.42" departDelay="2.90" arrival="194.30" arrivalLane="e0_1" arrivalPos="4800.00" arrivalSpeed="35.02" duration="163.40" routeLength="4996.99" waitingTime="0.00" waitingCount="0" stopTime="0.00" timeLoss="21.37" rerouteNo="0" devices="tripinfo_CAVToC.11 routing_CAVToC.11 ssm_CAVToC.11 toc_CAVToC.11 driverstateCAVToC.11" vType="vehLVOS892" speedFactor="0.97" vaporized=""/>
    <tripinfo id="CVToC.9" depart="29.90" departLane="entry_0" departPos="0.46" departSpeed="35.50" departDelay="2.80" arrival="196.00" arrivalLane="e0_0" arrivalPos="4800.00" arrivalSpeed="35.93" duration="166.10" routeLength="4999.54" waitingTime="0.00" waitingCount="0" stopTime="0.00" timeLoss="27.24" rerouteNo="0" devices="tripinfo_CVToC.9 routing_CVToC.9 ssm_CVToC.9 toc_CVToC.9 driverstateCVToC.9" vType="vehLVOS477" speedFactor="1.00" vaporized=""/>
    <tripinfo id="CAVToC.13" depart="33.50" departLane="entry_1" departPos="5.74" departSpeed="33.89" departDelay="1.90" arrival="196.20" arrivalLane="e0_1" arrivalPos="4800.00" arrivalSpeed="38.71" duration="162.70" routeLength="4994.26" waitingTime="0.00" waitingCount="0" stopTime="0.00" timeLoss="39.17" rerouteNo="0" devices="tripinfo_CAVToC.13 routing_CAVToC.13 ssm_CAVToC.13 toc_CAVToC.13 driverstateCAVToC.13" vType="vehLVOS292" speedFactor="1.12" vaporized=""/>
    <tripinfo id="CVToC.12" depart="36.00" departLane="entry_1" departPos="17.75" departSpeed="33.83" departDelay="3.50" arrival="198.00" arrivalLane="e0_1" arrivalPos="4800.00" arrivalSpeed="35.10" duration="162.00" routeLength="4982.25" waitingTime="0.00" waitingCount="0" stopTime="0.00" timeLoss="20.06" rerouteNo="0" devices="tripinfo_CVToC.12 routing_CVToC.12 ssm_CVToC.12 toc_CVToC.12 driverstateCVToC.12" vType="vehLVOS461" speedFactor="0.97" vaporized=""/>
    <tripinfo id="CAVToC.12" depart="32.10" departLane="entry_0" departPos="3.52" departSpeed="33.16" departDelay="2.50" arrival="198.90" arrivalLane="e0_0" arrivalPos="4800.00" arrivalSpeed="34.35" duration="166.80" routeLength="4996.48" waitingTime="0.00" waitingCount="0" stopTime="0.00" timeLoss="21.40" rerouteNo="0" devices="tripinfo_CAVToC.12 routing_CAVToC.12 ssm_CAVToC.12 toc_CAVToC.12 driverstateCAVToC.12" vType="vehLVOS374" speedFactor="0.95" vaporized=""/>
    <tripinfo id="CVToC.10" depart="38.40" departLane="entry_1" departPos="14.41" departSpeed="34.17" departDelay="7.60" arrival="199.40" arrivalLane="e0_1" arrivalPos="4800.00" arrivalSpeed="38.18" duration="161.00" routeLength="4985.59" waitingTime="0.00" waitingCount="0" stopTime="0.00" timeLoss="31.48" rerouteNo="0" devices="tripinfo_CVToC.10 routing_CVToC.10 ssm_CVToC.10 toc_CVToC.10 driverstateCVToC.10" vType="vehLVOS51" speedFactor="1.07" vaporized=""/>
    <tripinfo id="LV.6" depart="40.30" departLane="entry_1" departPos="0.09" departSpeed="37.17" departDelay="24.60" arrival="201.40" arrivalLane="e0_1" arrivalPos="4800.00" arrivalSpeed="37.16" duration="161.10" routeLength="4999.91" waitingTime="0.00" waitingCount="0" stopTime="0.00" timeLoss="26.53" rerouteNo="0" devices="tripinfo_LV.6 routing_LV.6 ssm_LV.6" vType="vehLVOS298" speedFactor="1.03" vaporized=""/>
    <tripinfo id="CVToC.13" depart="38.10" departLane="entry_0" departPos="40.18" departSpeed="33.68" departDelay="4.00" arrival="202.20" arrivalLane="e0_1" arrivalPos="4800.00" arrivalSpeed="37.94" duration="164.10" routeLength="4959.82" waitingTime="0.00" waitingCount="0" stopTime="0.00" timeLoss="33.41" rerouteNo="0" devices="tripinfo_CVToC.13 routing_CVToC.13 ssm_CVToC.13 toc_CVToC.13 driverstateCVToC.13" vType="vehLVOS666" speedFactor="1.05" vaporized=""/>
    <tripinfo id="LV.9" depart="42.50" departLane="entry_1" departPos="5.60" departSpeed="37.38" departDelay="5.20" arrival="202.30" arrivalLane="e0_0" arrivalPos="4800.00" arrivalSpeed="37.37" duration="159.80" routeLength="4994.40" waitingTime="0.00" waitingCount="0" stopTime="0.00" timeLoss="26.11" rerouteNo="0" devices="tripinfo_LV.9 routing_LV.9 ssm_LV.9" vType="vehLVOS736" speedFactor="1.04" vaporized=""/>
    <tripinfo id="CAVToC.14" depart="34.80" departLane="entry_0" departPos="10.50" departSpeed="33.45" departDelay="1.70" arrival="203.40" arrivalLane="e0_0" arrivalPos="4800.00" arrivalSpeed="37.78" duration="168.60" routeLength="4989.50" waitingTime="0.00" waitingCount="0" stopTime="0.00" timeLoss="36.60" rerouteNo="0" devices="tripinfo_CAVToC.14 routing_CAVToC.14 ssm_CAVToC.14 toc_CAVToC.14 driverstateCAVToC.14" vType="vehLVOS271" speedFactor="1.05" vaporized=""/>
    <tripinfo id="LV.10" depart="45.40" departLane="entry_1" departPos="0.08" departSpeed="33.70" departDelay="8.00" arrival="204.60" arrivalLane="e0_1" arrivalPos="4800.00" arrivalSpeed="33.67" duration="159.20" routeLength="4999.92" waitingTime="0.00" waitingCount="0" stopTime="0.00" timeLoss="10.80" rerouteNo="0" devices="tripinfo_LV.10 routing_LV.10 ssm_LV.10" vType="vehLVOS523" speedFactor="0.93" vaporized=""/>
    <tripinfo id="CAVToC.16" depart="44.60" departLane="entry_1" departPos="13.21" departSpeed="33.50" departDelay="6.50" arrival="205.00" arrivalLane="e0_0" arrivalPos="4800.00" arrivalSpeed="33.50" duration="160.40" routeLength="4986.79" waitingTime="0.00" waitingCount="0" stopTime="0.00" timeLoss="11.48" rerouteNo="0" devices="tripinfo_CAVToC.16 routing_CAVToC.16 ssm_CAVToC.16 toc_CAVToC.16 driverstateCAVToC.16" vType="vehLVOS961" speedFactor="0.93" vaporized=""/>
    <tripinfo id="CVToC.11" depart="47.70" departLane="entry_1" departPos="0.29" departSpeed="33.92" departDelay="15.60" arrival="206.40" arrivalLane="e0_1" arrivalPos="4800.00" arrivalSpeed="36.43" duration="158.70" routeLength="4999.71" waitingTime="0.00" waitingCount="0" stopTime="0.00" timeLoss="24.73" rerouteNo="0" devices="tripinfo_CVToC.11 routing_CVToC.11 ssm_CVToC.11 toc_CVToC.11 driverstateCVToC.11" vType="vehLVOS842" speedFactor="1.03" vaporized=""/>
    <tripinfo id="CAVToC.18" depart="50.10" departLane="entry_1" departPos="2.13" departSpeed="34.17" departDelay="4.90" arrival="207.40" arrivalLane="e0_1" arrivalPos="4800.00" arrivalSpeed="36.62" duration="157.30" routeLength="4997.87" waitingTime="0.00" waitingCount="0" stopTime="0.00" timeLoss="21.09" rerouteNo="0" devices="tripinfo_CAVToC.18 routing_CAVToC.18 ssm_CAVToC.18 toc_CAVToC.18 driverstateCAVToC.18" vType="vehLVOS793" speedFactor="1.02" vaporized=""/>
    <tripinfo id="LV.11" depart="45.70" departLane="entry_0" departPos="19.36" departSpeed="32.80" departDelay="1.10" arrival="209.60" arrivalLane="e0_0" arrivalPos="4800.00" arrivalSpeed="32.78" duration="163.90" routeLength="4980.64" waitingTime="0.00" waitingCount="0" stopTime="0.00" timeLoss="11.94" rerouteNo="0" devices="tripinfo_LV.11 routing_LV.11 ssm_LV.11" vType="vehLVOS731" speedFactor="0.91" vaporized=""/>
    <tripinfo id="LV.12" depart="54.60" departLane="entry_1" departPos="6.50" departSpeed="33.74" departDelay="5.20" arrival="213.80" arrivalLane="e0_1" arrivalPos="4800.00" arrivalSpeed="33.71" duration="159.20" routeLength="4993.50" waitingTime="0.00" waitingCount="0" stopTime="0.00" timeLoss="11.12" rerouteNo="0" devices="tripinfo_LV.12 routing_LV.12 ssm_LV.12" vType="vehLVOS592" speedFactor="0.93" vaporized=""/>
    <tripinfo id="CAVToC.15" depart="39.70" departLane="entry_0" departPos="31.20" departSpeed="30.33" departDelay="4.90" arrival="214.20" arrivalLane="e0_0" arrivalPos="4800.00" arrivalSpeed="30.26" duration="174.50" routeLength="4968.80" waitingTime="0.00" waitingCount="0" stopTime="0.00" timeLoss="10.57" rerouteNo="0" devices="tripinfo_CAVToC.15 routing_CAVToC.15 ssm_CAVToC.15 toc_CAVToC.15 driverstateCAVToC.15" vType="vehLVOS235" speedFactor="0.84" vaporized=""/>
    <tripinfo id="CAVToC.17" depart="41.40" departLane="entry_0" departPos="10.43" departSpeed="30.84" departDelay="3.20" arrival="215.00" arrivalLane="e0_0" arrivalPos="4800.00" arrivalSpeed="31.58" duration="173.60" routeLength="4989.57" waitingTime="0.00" waitingCount="0" stopTime="0.00" timeLoss="28.91" rerouteNo="0" devices="tripinfo_CAVToC.17 routing_CAVToC.17 ssm_CAVToC.17 toc_CAVToC.17 driverstateCAVToC.17" vType="vehLVOS13" speedFactor="0.96" vaporized=""/>
    <tripinfo id="LV.13" depart="56.40" departLane="entry_1" departPos="35.34" departSpeed="32.36" departDelay="1.60" arrival="217.30" arrivalLane="e0_1" arrivalPos="4800.00" arrivalSpeed="32.35" duration="160.90" routeLength="4964.66" waitingTime="0.00" waitingCount="0" stopTime="0.00" timeLoss="7.46" rerouteNo="0" devices="tripinfo_LV.13 routing_LV.13 ssm_LV.13" vType="vehLVOS73" speedFactor="0.90" vaporized=""/>
    <tripinfo id="CVToC.14" depart="43.70" departLane="entry_0" departPos="0.74" departSpeed="31.39" departDelay="7.80" arrival="218.40" arrivalLane="e0_0" arrivalPos="4800.00" arrivalSpeed="34.04" duration="174.70" routeLength="4999.26" waitingTime="0.00" waitingCount="0" stopTime="0.00" timeLoss="37.91" rerouteNo="0" devices="tripinfo_CVToC.14 routing_CVToC.14 ssm_CVToC.14 toc_CVToC.14 driverstateCVToC.14" vType="vehLVOS95" speedFactor="1.01" vaporized=""/>
    <tripinfo id="CAVToC.19" depart="58.20" departLane="entry_1" departPos="7.34" departSpeed="33.02" departDelay="1.10" arrival="219.10" arrivalLane="e0_1" arrivalPos="4800.00" arrivalSpeed="34.56" duration="160.90" routeLength="4992.66" waitingTime="0.00" waitingCount="0" stopTime="0.00" timeLoss="31.78" rerouteNo="0" devices="tripinfo_CAVToC.19 routing_CAVToC.19 ssm_CAVToC.19 toc_CAVToC.19 driverstateCAVToC.19" vType="vehLVOS999" speedFactor="1.07" vaporized=""/>
    <tripinfo id="CVToC.15" depart="47.50" departLane="entry_0" departPos="3.80" departSpeed="32.20" departDelay="2.90" arrival="219.70" arrivalLane="e0_0" arrivalPos="4800.00" arrivalSpeed="33.30" duration="172.20" routeLength="4996.20" waitingTime="0.00" waitingCount="0" stopTime="0.00" timeLoss="22.18" rerouteNo="0" devices="tripinfo_CVToC.15 routing_CVToC.15 ssm_CVToC.15 toc_CVToC.15 driverstateCVToC.15" vType="vehLVOS719" speedFactor="0.92" vaporized=""/>
    <tripinfo id="CAVToC.20" depart="60.80" departLane="entry_1" departPos="25.31" departSpeed="32.24" departDelay="0.00" arrival="220.40" arrivalLane="e0_1" arrivalPos="4800.00" arrivalSpeed="32.20" duration="159.60" routeLength="4974.69" waitingTime="0.00" waitingCount="0" stopTime="0.00" timeLoss="5.27" rerouteNo="0" devices="tripinfo_CAVToC.20 routing_CAVToC.20 ssm_CAVToC.20 toc_CAVToC.20 driverstateCAVToC.20" vType="vehLVOS477" speedFactor="0.89" vaporized=""/>
    <tripinfo id="CVToC.17" depart="50.00" departLane="entry_0" departPos="2.63" departSpeed="32.55" departDelay="4.10" arrival="220.70" arrivalLane="e0_0" arrivalPos="4800.00" arrivalSpeed="32.83" duration="170.70" routeLength="4997.37" waitingTime="0.00" waitingCount="0" stopTime="0.00" timeLoss="36.35" rerouteNo="0" devices="tripinfo_CVToC.17 routing_CVToC.17 ssm_CVToC.17 toc_CVToC.17 driverstateCVToC.17" vType="vehLVOS168" speedFactor="1.03" vaporized=""/>
    <tripinfo id="CVToC.20" depart="62.50" departLane="entry_1" departPos="0.72" departSpeed="32.78" departDelay="5.70" arrival="221.70" arrivalLane="e0_1" arrivalPos="4800.00" arrivalSpeed="34.08" duration="159.20" routeLength="4999.28" waitingTime="0.00" waitingCount="0" stopTime="0.00" timeLoss="21.96" rerouteNo="0" devices="tripinfo_CVToC.20 routing_CVToC.20 ssm_CVToC.20 toc_CVToC.20 driverstateCVToC.20" vType="vehLVOS975" speedFactor="1.01" vaporized=""/>
    <tripinfo id="CVToC.16" depart="53.00" departLane="entry_0" departPos="14.05" departSpeed="33.16" departDelay="7.40" arrival="222.30" arrivalLane="e0_0" arrivalPos="4800.00" arrivalSpeed="34.80" duration="169.30" routeLength="4985.95" waitingTime="0.00" waitingCount="0" stopTime="0.00" timeLoss="44.25" rerouteNo="0" devices="tripinfo_CVToC.16 routing_CVToC.16 ssm_CVToC.16 toc_CVToC.16 driverstateCVToC.16" vType="vehLVOS240" speedFactor="1.10" vaporized=""/>
    <tripinfo id="CVToC.24" depart="65.40" departLane="entry_1" departPos="14.69" departSpeed="33.16" departDelay="3.60" arrival="223.80" arrivalLane="e0_1" arrivalPos="4800.00" arrivalSpeed="34.61" duration="158.40" routeLength="4985.31" waitingTime="0.00" waitingCount="0" stopTime="0.00" timeLoss="22.24" rerouteNo="0" devices="tripinfo_CVToC.24 routing_CVToC.24 ssm_CVToC.24 toc_CVToC.24 driverstateCVToC.24" vType="vehLVOS644" speedFactor="1.01" vaporized=""/>
    <tripinfo id="CVToC.21" depart="58.00" departLane="entry_0" departPos="5.69" departSpeed="31.77" departDelay="1.10" arrival="224.60" arrivalLane="e0_1" arrivalPos="4800.00" arrivalSpeed="35.03" duration="166.60" routeLength="4994.31" waitingTime="0.00" waitingCount="0" stopTime="0.00" timeLoss="34.46" rerouteNo="0" devices="tripinfo_CVToC.21 routing_CVToC.21 ssm_CVToC.21 toc_CVToC.21 driverstateCVToC.21" vType="vehLVOS510" speedFactor="1.05" vaporized=""/>
    <tripinfo id="LV.14" depart="55.80" departLane="entry_0" departPos="98.80" departSpeed="30.21" departDelay="0.60" arrival="227.00" arrivalLane="e0_0" arrivalPos="4800.00" arrivalSpeed="30.21" duration="171.20" routeLength="4901.20" waitingTime="0.00" waitingCount="0" stopTime="0.00" timeLoss="8.91" rerouteNo="0" devices="tripinfo_LV.14 routing_LV.14 ssm_LV.14" vType="vehLVOS392" speedFactor="0.84" vaporized=""/>
    <tripinfo id="CAVToC.21" depart="68.30" departLane="entry_1" departPos="33.89" departSpeed="33.53" departDelay="7.00" arrival="227.80" arrivalLane="e0_1" arrivalPos="4800.00" arrivalSpeed="36.30" duration="159.50" routeLength="4966.11" waitingTime="0.00" waitingCount="0" stopTime="0.00" timeLoss="26.94" rerouteNo="0" devices="tripinfo_CAVToC.21 routing_CAVToC.21 ssm_CAVToC.21 toc_CAVToC.21 driverstateCAVToC.21" vType="vehLVOS288" speedFactor="1.04" vaporized=""/>
    <tripinfo id="CVToC.18" depart="56.10" departLane="entry_0" departPos="27.12" departSpeed="31.09" departDelay="2.90" arrival="228.50" arrivalLane="e0_0" arrivalPos="4800.00" arrivalSpeed="32.82" duration="172.40" routeLength="4972.88" waitingTime="0.00" waitingCount="0" stopTime="0.00" timeLoss="43.28" rerouteNo="0" devices="tripinfo_CVToC.18 routing_CVToC.18 ssm_CVToC.18 toc_CVToC.18 driverstateCVToC.18" vType="vehLVOS102" speedFactor="1.07" vaporized=""/>
    <tripinfo id="CAVToC.22" depart="70.90" departLane="entry_1" departPos="42.37" departSpeed="33.89" departDelay="9.00" arrival="228.90" arrivalLane="e0_1" arrivalPos="4800.00" arrivalSpeed="36.56" duration="158.00" routeLength="4957.63" waitingTime="0.00" waitingCount="0" stopTime="0.00" timeLoss="26.45" rerouteNo="0" devices="tripinfo_CAVToC.22 routing_CAVToC.22 ssm_CAVToC.22 toc_CAVToC.22 driverstateCAVToC.22" vType="vehLVOS208" speedFactor="1.04" vaporized=""/>
    <tripinfo id="CVToC.19" depart="60.90" departLane="entry_0" departPos="5.75" departSpeed="32.29" departDelay="6.70" arrival="233.00" arrivalLane="e0_0" arrivalPos="4800.00" arrivalSpeed="39.10" duration="172.10" routeLength="4994.25" waitingTime="0.00" waitingCount="0" stopTime="0.00" timeLoss="57.22" rerouteNo="0" devices="tripinfo_CVToC.19 routing_CVToC.19 ssm_CVToC.19 toc_CVToC.19 driverstateCVToC.19" vType="vehLVOS226" speedFactor="1.20" vaporized=""/>
    <tripinfo id="CVToC.22" depart="64.20" departLane="entry_0" departPos="12.28" departSpeed="30.97" departDelay="6.40" arrival="234.10" arrivalLane="e0_1" arrivalPos="4800.00" arrivalSpeed="36.59" duration="169.90" routeLength="4987.72" waitingTime="0.00" waitingCount="0" stopTime="0.00" timeLoss="54.75" rerouteNo="0" devices="tripinfo_CVToC.22 routing_CVToC.22 ssm_CVToC.22 toc_CVToC.22 driverstateCVToC.22" vType="vehLVOS359" speedFactor="1.20" vaporized=""/>
    <tripinfo id="CAVToC.23" depart="72.10" departLane="entry_1" departPos="15.53" departSpeed="31.01" departDelay="7.80" arrival="236.60" arrivalLane="e0_1" arrivalPos="4800.00" arrivalSpeed="30.94" duration="164.50" routeLength="4984.47" waitingTime="0.00" waitingCount="0" stopTime="0.00" timeLoss="3.77" rerouteNo="0" devices="tripinfo_CAVToC.23 routing_CAVToC.23 ssm_CAVToC.23 toc_CAVToC.23 driverstateCAVToC.23" vType="vehLVOS554" speedFactor="0.86" vaporized=""/>