<?xml version="1.0" encoding="UTF-8"?>

<!-- generated on Sat Jun 13 15:10:14 2020 by Eclipse SUMO Version v1_6_0+0553-a03471b
<configuration xmlns:xsi="http://www.w3.org/2001/XMLSchema-instance" xsi:noNamespaceSchemaLocation="http://sumo.dlr.de/xsd/sumoConfiguration.xsd">

    <input>
        <net-file value="scenario/UC5_1.net.xml"/>
        <route-files value="scenario/routes_trafficMix_0_trafficDemand_1_driverBehaviour_OS_seed_0.xml"/>
        <additional-files value="scenario/additionalsOutput_trafficMix_0_trafficDemand_1_driverBehaviour_OS_seed_0.xml,scenario/vTypesCAVToC_OS.add.xml,scenario/vTypesCVToC_OS.add.xml,scenario/vTypesLV_OS.add.xml,scenario/shapes.add.xml,scenario/view.add.xml"/>
    </input>

    <output>
        <tripinfo-output value="/home/noul_ar/workspace/tor-distribution/outputs/simulations/dnq_sample3015.zip_20200613-143151/tripinfo_6.xml"/>
    </output>

    <time>
        <step-length value="0.1"/>
    </time>

    <processing>
        <step-method.ballistic value="true"/>
        <ignore-route-errors value="true"/>
        <lanechange.duration value="2.5"/>
    </processing>

    <report>
        <no-step-log value="true"/>
    </report>

    <toc_device>
        <device.toc.ogNewTimeHeadway value="100"/>
        <device.toc.ogNewSpaceHeadway value="5"/>
        <device.toc.ogMaxDecel value="1"/>
        <device.toc.ogChangeRate value="1"/>
    </toc_device>

    <traci_server>
        <remote-port value="34045"/>
    </traci_server>

    <random_number>
        <seed value="1030"/>
    </random_number>

    <gui_only>
        <tracker-interval value="0.1"/>
    </gui_only>

</configuration>
-->

<tripinfos xmlns:xsi="http://www.w3.org/2001/XMLSchema-instance" xsi:noNamespaceSchemaLocation="http://sumo.dlr.de/xsd/tripinfo_file.xsd">
    <tripinfo id="CAVToC.1" depart="3.30" departLane="entry_1" departPos="83.45" departSpeed="36.49" departDelay="0.00" arrival="131.90" arrivalLane="e0_1" arrivalPos="4800.00" arrivalSpeed="38.98" duration="128.60" routeLength="4916.55" waitingTime="0.00" waitingCount="0" stopTime="0.00" timeLoss="2.49" rerouteNo="0" devices="tripinfo_CAVToC.1 routing_CAVToC.1 ssm_CAVToC.1 toc_CAVToC.1 driverstateCAVToC.1" vType="vehLVOS524" speedFactor="1.08" vaporized=""/>
    <tripinfo id="LV.1" depart="6.70" departLane="entry_1" departPos="134.40" departSpeed="39.39" departDelay="0.00" arrival="133.70" arrivalLane="e0_1" arrivalPos="4800.00" arrivalSpeed="39.33" duration="127.00" routeLength="4865.60" waitingTime="0.00" waitingCount="0" stopTime="0.00" timeLoss="3.48" rerouteNo="0" devices="tripinfo_LV.1 routing_LV.1 ssm_LV.1" vType="vehLVOS289" speedFactor="1.09" vaporized=""/>
    <tripinfo id="LV.0" depart="2.10" departLane="entry_1" departPos="125.88" departSpeed="36.69" departDelay="0.00" arrival="135.20" arrivalLane="e0_0" arrivalPos="4800.00" arrivalSpeed="36.69" duration="133.10" routeLength="4874.12" waitingTime="0.00" waitingCount="0" stopTime="0.00" timeLoss="0.21" rerouteNo="0" devices="tripinfo_LV.0 routing_LV.0 ssm_LV.0" vType="vehLVOS158" speedFactor="1.02" vaporized=""/>
    <tripinfo id="CAVToC.2" depart="6.70" departLane="entry_1" departPos="42.54" departSpeed="37.15" departDelay="0.00" arrival="135.50" arrivalLane="e0_1" arrivalPos="4800.00" arrivalSpeed="41.33" duration="128.80" routeLength="4957.46" waitingTime="0.00" waitingCount="0" stopTime="0.00" timeLoss="16.37" rerouteNo="0" devices="tripinfo_CAVToC.2 routing_CAVToC.2 ssm_CAVToC.2 toc_CAVToC.2 driverstateCAVToC.2" vType="vehLVOS54" speedFactor="1.22" vaporized=""/>
    <tripinfo id="CVToC.1" depart="10.00" departLane="entry_1" departPos="2.87" departSpeed="36.49" departDelay="0.00" arrival="141.70" arrivalLane="e0_1" arrivalPos="4800.00" arrivalSpeed="39.03" duration="131.70" routeLength="4997.13" waitingTime="0.00" waitingCount="0" stopTime="0.00" timeLoss="3.58" rerouteNo="0" devices="tripinfo_CVToC.1 routing_CVToC.1 ssm_CVToC.1 toc_CVToC.1 driverstateCVToC.1" vType="vehLVOS216" speedFactor="1.08" vaporized=""/>
    <tripinfo id="CAVToC.3" depart="6.90" departLane="entry_0" departPos="199.90" departSpeed="36.96" departDelay="0.00" arrival="143.40" arrivalLane="e0_1" arrivalPos="4800.00" arrivalSpeed="42.31" duration="136.50" routeLength="4800.10" waitingTime="0.00" waitingCount="0" stopTime="0.00" timeLoss="23.94" rerouteNo="0" devices="tripinfo_CAVToC.3 routing_CAVToC.3 ssm_CAVToC.3 toc_CAVToC.3 driverstateCAVToC.3" vType="vehLVOS235" speedFactor="1.18" vaporized=""/>
    <tripinfo id="CVToC.0" depart="8.60" departLane="entry_1" departPos="34.16" departSpeed="36.34" departDelay="0.00" arrival="143.40" arrivalLane="e0_0" arrivalPos="4800.00" arrivalSpeed="37.08" duration="134.80" routeLength="4965.84" waitingTime="0.00" waitingCount="0" stopTime="0.00" timeLoss="1.08" rerouteNo="0" devices="tripinfo_CVToC.0 routing_CVToC.0 ssm_CVToC.0 toc_CVToC.0 driverstateCVToC.0" vType="vehLVOS918" speedFactor="1.03" vaporized=""/>
    <tripinfo id="CAVToC.4" depart="7.40" departLane="entry_0" departPos="138.03" departSpeed="36.14" departDelay="0.00" arrival="146.00" arrivalLane="e0_0" arrivalPos="4800.00" arrivalSpeed="36.79" duration="138.60" routeLength="4861.97" waitingTime="0.00" waitingCount="0" stopTime="0.00" timeLoss="6.54" rerouteNo="0" devices="tripinfo_CAVToC.4 routing_CAVToC.4 ssm_CAVToC.4 toc_CAVToC.4 driverstateCAVToC.4" vType="vehLVOS268" speedFactor="1.02" vaporized=""/>
    <tripinfo id="CAVToC.5" depart="14.40" departLane="entry_1" departPos="1.18" departSpeed="34.40" departDelay="0.00" arrival="152.20" arrivalLane="e0_0" arrivalPos="4800.00" arrivalSpeed="37.32" duration="137.80" routeLength="4998.82" waitingTime="0.00" waitingCount="0" stopTime="0.00" timeLoss="4.00" rerouteNo="0" devices="tripinfo_CAVToC.5 routing_CAVToC.5 ssm_CAVToC.5 toc_CAVToC.5 driverstateCAVToC.5" vType="vehLVOS71" speedFactor="1.03" vaporized=""/>
    <tripinfo id="CAVToC.6" depart="16.00" departLane="entry_0" departPos="133.29" departSpeed="27.74" departDelay="0.10" arrival="155.50" arrivalLane="e0_1" arrivalPos="4800.00" arrivalSpeed="37.95" duration="139.50" routeLength="4866.71" waitingTime="0.00" waitingCount="0" stopTime="0.00" timeLoss="11.26" rerouteNo="0" devices="tripinfo_CAVToC.6 routing_CAVToC.6 ssm_CAVToC.6 toc_CAVToC.6 driverstateCAVToC.6" vType="vehLVOS222" speedFactor="1.05" vaporized=""/>
    <tripinfo id="CAVToC.0" depart="0.50" departLane="entry_1" departPos="199.90" departSpeed="30.92" departDelay="0.00" arrival="156.10" arrivalLane="e0_0" arrivalPos="4800.00" arrivalSpeed="30.83" duration="155.60" routeLength="4800.10" waitingTime="0.00" waitingCount="0" stopTime="0.00" timeLoss="0.28" rerouteNo="0" devices="tripinfo_CAVToC.0 routing_CAVToC.0 ssm_CAVToC.0 toc_CAVToC.0 driverstateCAVToC.0" vType="vehLVOS616" speedFactor="0.86" vaporized=""/>
    <tripinfo id="CVToC.5" depart="19.50" departLane="entry_0" departPos="6.49" departSpeed="30.43" departDelay="0.00" arrival="156.50" arrivalLane="e0_1" arrivalPos="4800.00" arrivalSpeed="38.19" duration="137.00" routeLength="4993.51" waitingTime="0.00" waitingCount="0" stopTime="0.00" timeLoss="6.25" rerouteNo="0" devices="tripinfo_CVToC.5 routing_CVToC.5 ssm_CVToC.5 toc_CVToC.5 driverstateCVToC.5" vType="vehLVOS515" speedFactor="1.06" vaporized=""/>
    <tripinfo id="CVToC.3" depart="12.20" departLane="entry_1" departPos="8.52" departSpeed="33.94" departDelay="0.00" arrival="159.30" arrivalLane="e0_0" arrivalPos="4800.00" arrivalSpeed="33.94" duration="147.10" routeLength="4991.48" waitingTime="0.00" waitingCount="0" stopTime="0.00" timeLoss="0.01" rerouteNo="0" devices="tripinfo_CVToC.3 routing_CVToC.3 ssm_CVToC.3 toc_CVToC.3 driverstateCVToC.3" vType="vehLVOS578" speedFactor="0.94" vaporized=""/>
    <tripinfo id="CAVToC.9" depart="26.70" departLane="entry_1" departPos="69.92" departSpeed="33.96" departDelay="0.10" arrival="163.70" arrivalLane="e0_0" arrivalPos="4800.00" arrivalSpeed="38.42" duration="137.00" routeLength="4930.08" waitingTime="0.00" waitingCount="0" stopTime="0.00" timeLoss="8.75" rerouteNo="0" devices="tripinfo_CAVToC.9 routing_CAVToC.9 ssm_CAVToC.9 toc_CAVToC.9 driverstateCAVToC.9" vType="vehLVOS606" speedFactor="1.06" vaporized=""/>
    <tripinfo id="LV.2" depart="28.00" departLane="entry_0" departPos="0.72" departSpeed="43.85" departDelay="4.90" arrival="165.40" arrivalLane="e0_1" arrivalPos="4800.00" arrivalSpeed="43.82" duration="137.40" routeLength="4999.28" waitingTime="0.00" waitingCount="0" stopTime="0.00" timeLoss="23.38" rerouteNo="0" devices="tripinfo_LV.2 routing_LV.2 ssm_LV.2" vType="vehLVOS332" speedFactor="1.21" vaporized=""/>
    <tripinfo id="CVToC.7" depart="24.30" departLane="entry_1" departPos="78.10" departSpeed="31.80" departDelay="0.00" arrival="168.90" arrivalLane="e0_0" arrivalPos="4800.00" arrivalSpeed="34.57" duration="144.60" routeLength="4921.90" waitingTime="0.00" waitingCount="0" stopTime="0.00" timeLoss="3.03" rerouteNo="0" devices="tripinfo_CVToC.7 routing_CVToC.7 ssm_CVToC.7 toc_CVToC.7 driverstateCVToC.7" vType="vehLVOS545" speedFactor="0.96" vaporized=""/>
    <tripinfo id="CVToC.8" depart="28.70" departLane="entry_1" departPos="60.33" departSpeed="34.81" departDelay="0.30" arrival="171.00" arrivalLane="e0_0" arrivalPos="4800.00" arrivalSpeed="35.55" duration="142.30" routeLength="4939.67" waitingTime="0.00" waitingCount="0" stopTime="0.00" timeLoss="3.69" rerouteNo="0" devices="tripinfo_CVToC.8 routing_CVToC.8 ssm_CVToC.8 toc_CVToC.8 driverstateCVToC.8" vType="vehLVOS345" speedFactor="0.99" vaporized=""/>
    <tripinfo id="CAVToC.10" depart="33.10" departLane="entry_1" departPos="110.45" departSpeed="32.91" departDelay="0.00" arrival="173.80" arrivalLane="e0_0" arrivalPos="4800.00" arrivalSpeed="37.17" duration="140.70" routeLength="4889.55" waitingTime="0.00" waitingCount="0" stopTime="0.00" timeLoss="9.17" rerouteNo="0" devices="tripinfo_CAVToC.10 routing_CAVToC.10 ssm_CAVToC.10 toc_CAVToC.10 driverstateCAVToC.10" vType="vehLVOS284" speedFactor="1.03" vaporized=""/>
    <tripinfo id="CAVToC.12" depart="37.40" departLane="entry_0" departPos="42.46" departSpeed="33.05" departDelay="0.00" arrival="176.60" arrivalLane="e0_0" arrivalPos="4800.00" arrivalSpeed="37.42" duration="139.20" routeLength="4957.54" waitingTime="0.00" waitingCount="0" stopTime="0.00" timeLoss="7.01" rerouteNo="0" devices="tripinfo_CAVToC.12 routing_CAVToC.12 ssm_CAVToC.12 toc_CAVToC.12 driverstateCAVToC.12" vType="vehLVOS432" speedFactor="1.04" vaporized=""/>
    <tripinfo id="LV.3" depart="31.80" departLane="entry_0" departPos="6.70" departSpeed="36.81" departDelay="0.00" arrival="179.40" arrivalLane="e0_0" arrivalPos="4800.00" arrivalSpeed="36.74" duration="147.60" routeLength="4993.30" waitingTime="0.00" waitingCount="0" stopTime="0.00" timeLoss="11.91" rerouteNo="0" devices="tripinfo_LV.3 routing_LV.3 ssm_LV.3" vType="vehLVOS542" speedFactor="1.02" vaporized=""/>
    <tripinfo id="CAVToC.14" depart="38.70" departLane="entry_1" departPos="7.29" departSpeed="33.10" departDelay="0.00" arrival="182.60" arrivalLane="e0_0" arrivalPos="4800.00" arrivalSpeed="36.99" duration="143.90" routeLength="4992.71" waitingTime="0.00" waitingCount="0" stopTime="0.00" timeLoss="8.86" rerouteNo="0" devices="tripinfo_CAVToC.14 routing_CAVToC.14 ssm_CAVToC.14 toc_CAVToC.14 driverstateCAVToC.14" vType="vehLVOS588" speedFactor="1.02" vaporized=""/>
    <tripinfo id="CVToC.9" depart="29.70" departLane="entry_0" departPos="0.66" departSpeed="34.92" departDelay="0.00" arrival="189.00" arrivalLane="e0_0" arrivalPos="4800.00" arrivalSpeed="34.91" duration="159.30" routeLength="4999.34" waitingTime="0.00" waitingCount="0" stopTime="0.00" timeLoss="16.12" rerouteNo="0" devices="tripinfo_CVToC.9 routing_CVToC.9 ssm_CVToC.9 toc_CVToC.9 driverstateCVToC.9" vType="vehLVOS18" speedFactor="0.97" vaporized=""/>
    <tripinfo id="CVToC.6" depart="24.40" departLane="entry_0" departPos="150.35" departSpeed="27.97" departDelay="0.30" arrival="197.30" arrivalLane="e0_1" arrivalPos="4800.00" arrivalSpeed="37.26" duration="172.90" routeLength="4849.65" waitingTime="0.00" waitingCount="0" stopTime="0.00" timeLoss="42.76" rerouteNo="0" devices="tripinfo_CVToC.6 routing_CVToC.6 ssm_CVToC.6 toc_CVToC.6 driverstateCVToC.6" vType="vehLVOS915" speedFactor="1.03" vaporized=""/>
    <tripinfo id="CAVToC.13" depart="38.60" departLane="entry_0" departPos="9.53" departSpeed="32.91" departDelay="0.00" arrival="197.50" arrivalLane="e0_0" arrivalPos="4800.00" arrivalSpeed="34.38" duration="158.90" routeLength="4990.47" waitingTime="0.00" waitingCount="0" stopTime="0.00" timeLoss="13.79" rerouteNo="0" devices="tripinfo_CAVToC.13 routing_CAVToC.13 ssm_CAVToC.13 toc_CAVToC.13 driverstateCAVToC.13" vType="vehLVOS716" speedFactor="0.95" vaporized=""/>
    <tripinfo id="CAVToC.11" depart="36.60" departLane="entry_0" departPos="98.05" departSpeed="32.73" departDelay="0.00" arrival="203.30" arrivalLane="e0_0" arrivalPos="4800.00" arrivalSpeed="34.39" duration="166.70" routeLength="4901.95" waitingTime="0.00" waitingCount="0" stopTime="0.00" timeLoss="24.77" rerouteNo="0" devices="tripinfo_CAVToC.11 routing_CAVToC.11 ssm_CAVToC.11 toc_CAVToC.11 driverstateCAVToC.11" vType="vehLVOS980" speedFactor="0.96" vaporized=""/>
    <tripinfo id="CAVToC.8" depart="17.80" departLane="entry_0" departPos="40.29" departSpeed="29.19" departDelay="0.00" arrival="207.40" arrivalLane="e0_0" arrivalPos="4800.00" arrivalSpeed="31.68" duration="189.60" routeLength="4959.71" waitingTime="0.00" waitingCount="0" stopTime="0.00" timeLoss="33.02" rerouteNo="0" devices="tripinfo_CAVToC.8 routing_CAVToC.8 ssm_CAVToC.8 toc_CAVToC.8 driverstateCAVToC.8" vType="vehLVOS589" speedFactor="0.88" vaporized=""/>
    <tripinfo id="CAVToC.7" depart="16.70" departLane="entry_0" departPos="76.34" departSpeed="28.62" departDelay="0.00" arrival="208.70" arrivalLane="e0_1" arrivalPos="4800.00" arrivalSpeed="33.71" duration="192.00" routeLength="4923.66" waitingTime="0.00" waitingCount="0" stopTime="0.00" timeLoss="46.20" rerouteNo="0" devices="tripinfo_CAVToC.7 routing_CAVToC.7 ssm_CAVToC.7 toc_CAVToC.7 driverstateCAVToC.7" vType="vehLVOS499" speedFactor="0.94" vaporized=""/>
    <tripinfo id="CVToC.4" depart="15.30" departLane="entry_0" departPos="199.90" departSpeed="26.05" departDelay="0.20" arrival="210.20" arrivalLane="e0_1" arrivalPos="4800.00" arrivalSpeed="34.91" duration="194.90" routeLength="4800.10" waitingTime="0.00" waitingCount="0" stopTime="0.00" timeLoss="75.32" rerouteNo="0" devices="tripinfo_CVToC.4 routing_CVToC.4 ssm_CVToC.4 toc_CVToC.4 driverstateCVToC.4" vType="vehLVOS926" speedFactor="1.11" vaporized=""/>
    <tripinfo id="CVToC.2" depart="11.30" departLane="entry_0" departPos="199.90" departSpeed="23.98" departDelay="0.00" arrival="211.70" arrivalLane="e0_0" arrivalPos="4800.00" arrivalSpeed="23.97" duration="200.40" routeLength="4800.10" waitingTime="0.00" waitingCount="0" stopTime="0.00" timeLoss="0.24" rerouteNo="0" devices="tripinfo_CVToC.2 routing_CVToC.2 ssm_CVToC.2 toc_CVToC.2 driverstateCVToC.2" vType="vehLVOS596" speedFactor="0.66" vaporized=""/>
    <tripinfo id="CAVToC.15" depart="40.70" departLane="entry_1" departPos="12.42" departSpeed="27.51" departDelay="1.30" arrival="224.20" arrivalLane="e0_1" arrivalPos="4800.00" arrivalSpeed="27.50" duration="183.50" routeLength="4987.58" waitingTime="0.00" waitingCount="0" stopTime="0.00" timeLoss="2.15" rerouteNo="0" devices="tripinfo_CAVToC.15 routing_CAVToC.15 ssm_CAVToC.15 toc_CAVToC.15 driverstateCAVToC.15" vType="vehLVOS610" speedFactor="0.76" vaporized=""/>
    <tripinfo id="CAVToC.18" depart="43.40" departLane="entry_1" departPos="5.31" departSpeed="28.65" departDelay="1.40" arrival="225.60" arrivalLane="e0_1" arrivalPos="4800.00" arrivalSpeed="29.00" duration="182.20" routeLength="4994.69" waitingTime="0.00" waitingCount="0" stopTime="0.00" timeLoss="50.66" rerouteNo="0" devices="tripinfo_CAVToC.18 routing_CAVToC.18 ssm_CAVToC.18 toc_CAVToC.18 driverstateCAVToC.18" vType="vehLVOS375" speedFactor="1.05" vaporized=""/>
    <tripinfo id="CAVToC.16" depart="41.00" departLane="entry_0" departPos="2.42" departSpeed="32.68" departDelay="0.80" arrival="225.70" arrivalLane="e0_0" arrivalPos="4800.00" arrivalSpeed="29.13" duration="184.70" routeLength="4997.58" waitingTime="0.00" waitingCount="0" stopTime="0.00" timeLoss="55.68" rerouteNo="0" devices="tripinfo_CAVToC.16 routing_CAVToC.16 ssm_CAVToC.16 toc_CAVToC.16 driverstateCAVToC.16" vType="vehLVOS678" speedFactor="1.07" vaporized=""/>
    <tripinfo id="CAVToC.19" depart="46.60" departLane="entry_1" departPos="10.16" departSpeed="29.62" departDelay="2.20" arrival="227.10" arrivalLane="e0_1" arrivalPos="4800.00" arrivalSpeed="31.08" duration="180.50" routeLength="4989.84" waitingTime="0.00" waitingCount="0" stopTime="0.00" timeLoss="51.91" rerouteNo="0" devices="tripinfo_CAVToC.19 routing_CAVToC.19 ssm_CAVToC.19 toc_CAVToC.19 driverstateCAVToC.19" vType="vehLVOS642" speedFactor="1.07" vaporized=""/>
    <tripinfo id="CAVToC.17" depart="44.10" departLane="entry_0" departPos="13.99" departSpeed="27.25" departDelay="3.20" arrival="227.70" arrivalLane="e0_0" arrivalPos="4800.00" arrivalSpeed="32.74" duration="183.60" routeLength="4986.01" waitingTime="0.00" waitingCount="0" stopTime="0.00" timeLoss="51.70" rerouteNo="0" devices="tripinfo_CAVToC.17 routing_CAVToC.17 ssm_CAVToC.17 toc_CAVToC.17 driverstateCAVToC.17" vType="vehLVOS293" speedFactor="1.05" vaporized=""/>
    <tripinfo id="CVToC.10" depart="49.70" departLane="entry_1" departPos="34.74" departSpeed="29.64" departDelay="1.60" arrival="230.70" arrivalLane="e0_1" arrivalPos="4800.00" arrivalSpeed="31.27" duration="181.00" routeLength="4965.26" waitingTime="0.00" waitingCount="0" stopTime="0.00" timeLoss="22.26" rerouteNo="0" devices="tripinfo_CVToC.10 routing_CVToC.10 ssm_CVToC.10 toc_CVToC.10 driverstateCVToC.10" vType="vehLVOS532" speedFactor="0.87" vaporized=""/>
    <tripinfo id="CAVToC.22" depart="52.80" departLane="entry_1" departPos="43.42" departSpeed="30.30" departDelay="3.70" arrival="231.60" arrivalLane="e0_1" arrivalPos="4800.00" arrivalSpeed="33.44" duration="178.80" routeLength="4956.58" waitingTime="0.00" waitingCount="0" stopTime="0.00" timeLoss="46.67" rerouteNo="0" devices="tripinfo_CAVToC.22 routing_CAVToC.22 ssm_CAVToC.22 toc_CAVToC.22 driverstateCAVToC.22" vType="vehLVOS201" speedFactor="1.04" vaporized=""/>
    <tripinfo id="CAVToC.21" depart="49.20" departLane="entry_0" departPos="76.99" departSpeed="26.37" departDelay="0.30" arrival="231.80" arrivalLane="e0_0" arrivalPos="4800.00" arrivalSpeed="30.83" duration="182.60" routeLength="4923.01" waitingTime="0.00" waitingCount="0" stopTime="0.00" timeLoss="23.30" rerouteNo="0" devices="tripinfo_CAVToC.21 routing_CAVToC.21 ssm_CAVToC.21 toc_CAVToC.21 driverstateCAVToC.21" vType="vehLVOS150" speedFactor="0.86" vaporized=""/>
    <tripinfo id="CAVToC.20" depart="50.20" departLane="entry_0" departPos="28.00" departSpeed="27.19" departDelay="2.00" arrival="233.50" arrivalLane="e0_0" arrivalPos="4800.00" arrivalSpeed="34.09" duration="183.30" routeLength="4972.00" waitingTime="0.00" waitingCount="0" stopTime="0.00" timeLoss="38.07" rerouteNo="0" devices="tripinfo_CAVToC.20 routing_CAVToC.20 ssm_CAVToC.20 toc_CAVToC.20 driverstateCAVToC.20" vType="vehLVOS460" speedFactor="0.95" vaporized=""/>
    <tripinfo id="CAVToC.23" depart="54.40" departLane="entry_1" departPos="9.24" departSpeed="30.94" departDelay="5.10" arrival="233.80" arrivalLane="e0_1" arrivalPos="4800.00" arrivalSpeed="36.55" duration="179.40" routeLength="4990.76" waitingTime="0.00" waitingCount="0" stopTime="0.00" timeLoss="44.05" rerouteNo="0" devices="tripinfo_CAVToC.23 routing_CAVToC.23 ssm_CAVToC.23 toc_CAVToC.23 driverstateCAVToC.23" vType="vehLVOS568" speedFactor="1.02" vaporized=""/>
    <tripinfo id="CVToC.11" depart="58.30" departLane="entry_1" departPos="13.07" departSpeed="30.78" departDelay="2.20" arrival="234.90" arrivalLane="e0_1" arrivalPos="4800.00" arrivalSpeed="35.23" duration="176.60" routeLength="4986.93" waitingTime="0.00" waitingCount="0" stopTime="0.00" timeLoss="35.13" rerouteNo="0" devices="tripinfo_CVToC.11 routing_CVToC.11 ssm_CVToC.11 toc_CVToC.11 driverstateCVToC.11" vType="vehLVOS568" speedFactor="0.98" vaporized=""/>
    <tripinfo id="LV.8" depart="57.20" departLane="entry_1" departPos="59.43" departSpeed="30.38" departDelay="1.90" arrival="235.10" arrivalLane="e0_0" arrivalPos="4800.00" arrivalSpeed="30.33" duration="177.90" routeLength="4940.57" waitingTime="0.00" waitingCount="0" stopTime="0.00" timeLoss="15.28" rerouteNo="0" devices="tripinfo_LV.8 routing_LV.8 ssm_LV.8" vType="vehLVOS194" speedFactor="0.84" vaporized=""/>
    <tripinfo id="CAVToC.24" depart="53.00" departLane="entry_0" departPos="22.60" departSpeed="27.92" departDelay="1.40" arrival="237.20" arrivalLane="e0_0" arrivalPos="4800.00" arrivalSpeed="33.82" duration="184.20" routeLength="4977.40" waitingTime="0.00" waitingCount="0" stopTime="0.00" timeLoss="43.85" rerouteNo="0" devices="tripinfo_CAVToC.24 routing_CAVToC.24 ssm_CAVToC.24 toc_CAVToC.24 driverstateCAVToC.24" vType="vehLVOS321" speedFactor="0.98" vaporized=""/>
    <tripinfo id="CVToC.13" depart="60.90" departLane="entry_1" departPos="13.53" departSpeed="31.31" departDelay="2.00" arrival="237.50" arrivalLane="e0_1" arrivalPos="4800.00" arrivalSpeed="37.42" duration="176.60" routeLength="4986.47" waitingTime="0.00" waitingCount="0" stopTime="0.00" timeLoss="43.32" rerouteNo="0" devices="tripinfo_CVToC.13 routing_CVToC.13 ssm_CVToC.13 toc_CVToC.13 driverstateCVToC.13" vType="vehLVOS243" speedFactor="1.04" vaporized=""/>
    <tripinfo id="CAVToC.25" depart="55.80" departLane="entry_0" departPos="28.98" departSpeed="28.09" departDelay="3.70" arrival="238.80" arrivalLane="e0_0" arrivalPos="4800.00" arrivalSpeed="31.37" duration="183.00" routeLength="4971.02" waitingTime="0.00" waitingCount="0" stopTime="0.00" timeLoss="24.75" rerouteNo="0" devices="tripinfo_CAVToC.25 routing_CAVToC.25 ssm_CAVToC.25 toc_CAVToC.25 driverstateCAVToC.25" vType="vehLVOS267" speedFactor="0.87" vaporized=""/>
    <tripinfo id="CVToC.15" depart="64.00" departLane="entry_1" departPos="35.11" departSpeed="31.57" departDelay="4.30" arrival="239.00" arrivalLane="e0_1" arrivalPos="4800.00" arrivalSpeed="36.21" duration="175.00" routeLength="4964.89" waitingTime="0.00" waitingCount="0" stopTime="0.00" timeLoss="37.87" rerouteNo="0" devices="tripinfo_CVToC.15 routing_CVToC.15 ssm_CVToC.15 toc_CVToC.15 driverstateCVToC.15" vType="vehLVOS424" speedFactor="1.00" vaporized=""/>
    <tripinfo id="LV.7" depart="60.50" departLane="entry_0" departPos="5.01" departSpeed="41.71" departDelay="6.00" arrival="240.30" arrivalLane="e0_0" arrivalPos="4800.00" arrivalSpeed="34.43" duration="179.80" routeLength="4994.99" waitingTime="0.00" waitingCount="0" stopTime="0.00" timeLoss="59.97" rerouteNo="0" devices="tripinfo_LV.7 routing_LV.7 ssm_LV.7" vType="vehLVOS237" speedFactor="1.16" vaporized=""/>
    <tripinfo id="LV.5" depart="67.20" departLane="entry_1" departPos="1.54" departSpeed="41.00" departDelay="22.70" arrival="240.40" arrivalLane="e0_1" arrivalPos="4800.00" arrivalSpeed="36.79" duration="173.20" routeLength="4998.46" waitingTime="0.00" waitingCount="0" stopTime="0.00" timeLoss="51.24" rerouteNo="0" devices="tripinfo_LV.5 routing_LV.5 ssm_LV.5" vType="vehLVOS601" speedFactor="1.14" vaporized=""/>
    <tripinfo id="CVToC.12" depart="69.70" departLane="entry_1" departPos="32.62" departSpeed="34.57" departDelay="13.40" arrival="243.20" arrivalLane="e0_1" arrivalPos="4800.00" arrivalSpeed="34.56" duration="173.50" routeLength="4967.38" waitingTime="0.00" waitingCount="0" stopTime="0.00" timeLoss="29.80" rerouteNo="0" devices="tripinfo_CVToC.12 routing_CVToC.12 ssm_CVToC.12 toc_CVToC.12 driverstateCVToC.12" vType="vehLVOS18" speedFactor="0.96" vaporized=""/>
    <tripinfo id="CAVToC.26" depart="62.50" departLane="entry_0" departPos="12.59" departSpeed="31.97" departDelay="3.60" arrival="244.00" arrivalLane="e0_0" arrivalPos="4800.00" arrivalSpeed="31.96" duration="181.50" routeLength="4987.41" waitingTime="0.00" waitingCount="0" stopTime="0.00" timeLoss="25.48" rerouteNo="0" devices="tripinfo_CAVToC.26 routing_CAVToC.26 ssm_CAVToC.26 toc_CAVToC.26 driverstateCAVToC.26" vType="vehLVOS533" speedFactor="0.89" vaporized=""/>
    <tripinfo id="CVToC.18" depart="72.90" departLane="entry_1" departPos="49.52" departSpeed="35.72" departDelay="10.30" arrival="244.60" arrivalLane="e0_1" arrivalPos="4800.00" arrivalSpeed="36.25" duration="171.70" routeLength="4950.48" waitingTime="0.00" waitingCount="0" stopTime="0.00" timeLoss="62.42" rerouteNo="0" devices="tripinfo_CVToC.18 routing_CVToC.18 ssm_CVToC.18 toc_CVToC.18 driverstateCVToC.18" vType="vehLVOS73" speedFactor="1.26" vaporized=""/>
    <tripinfo id="CAVToC.27" depart="74.30" departLane="entry_1" departPos="27.33" departSpeed="35.62" departDelay="9.70" arrival="245.90" arrivalLane="e0_1" arrivalPos="4800.00" arrivalSpeed="35.61" duration="171.60" routeLength="4972.67" waitingTime="0.00" waitingCount="0" stopTime="0.00" timeLoss="31.92" rerouteNo="0" devices="tripinfo_CAVToC.27 routing_CAVToC.27 ssm_CAVToC.27 toc_CAVToC.27 driverstateCAVToC.27" vType="vehLVOS819" speedFactor="0.99" vaporized=""/>
    <tripinfo id="CVToC.16" depart="66.40" departLane="entry_0" departPos="57.49" departSpeed="31.23" departDelay="5.80" arrival="246.00" arrivalLane="e0_0" arrivalPos="4800.00" arrivalSpeed="35.27" duration="179.60" routeLength="4942.51" waitingTime="0.00" waitingCount="0" stopTime="0.00" timeLoss="39.42" rerouteNo="0" devices="tripinfo_CVToC.16 routing_CVToC.16 ssm_CVToC.16 toc_CVToC.16 driverstateCVToC.16" vType="vehLVOS472" speedFactor="0.98" vaporized=""/>
    <tripinfo id="LV.6" depart="76.40" departLane="entry_1" departPos="3.41" departSpeed="40.61" departDelay="30.70" arrival="247.50" arrivalLane="e0_1" arrivalPos="4800.00" arrivalSpeed="36.62" duration="171.10" routeLength="4996.59" waitingTime="0.00" waitingCount="0" stopTime="0.00" timeLoss="48.04" rerouteNo="0" devices="tripinfo_LV.6 routing_LV.6 ssm_LV.6" vType="vehLVOS583" speedFactor="1.12" vaporized=""/>
    <tripinfo id="CVToC.14" depart="67.10" departLane="entry_0" departPos="2.68" departSpeed="31.66" departDelay="7.80" arrival="248.10" arrivalLane="e0_0" arrivalPos="4800.00" arrivalSpeed="35.00" duration="181.00" routeLength="4997.32" waitingTime="0.00" waitingCount="0" stopTime="0.00" timeLoss="38.25" rerouteNo="0" devices="tripinfo_CVToC.14 routing_CVToC.14 ssm_CVToC.14 toc_CVToC.14 driverstateCVToC.14" vType="vehLVOS62" speedFactor="0.97" vaporized=""/>
    <tripinfo id="LV.12" depart="77.10" departLane="entry_1" departPos="24.10" departSpeed="34.58" departDelay="6.90" arrival="249.10" arrivalLane="e0_1" arrivalPos="4800.00" arrivalSpeed="34.55" duration="172.00" routeLength="4975.90" waitingTime="0.00" waitingCount="0" stopTime="0.00" timeLoss="28.05" rerouteNo="0" devices="tripinfo_LV.12 routing_LV.12 ssm_LV.12" vType="vehLVOS25" speedFactor="0.96" vaporized=""/>
    <tripinfo id="LV.9" depart="81.60" departLane="entry_1" departPos="5.81" departSpeed="45.33" departDelay="19.90" arrival="250.50" arrivalLane="e0_1" arrivalPos="4800.00" arrivalSpeed="36.09" duration="168.90" routeLength="4994.19" waitingTime="0.00" waitingCount="0" stopTime="0.00" timeLoss="58.71" rerouteNo="0" devices="tripinfo_LV.9 routing_LV.9 ssm_LV.9" vType="vehLVOS382" speedFactor="1.26" vaporized=""/>
    <tripinfo id="CVToC.17" depart="70.70" departLane="entry_0" departPos="20.36" departSpeed="32.72" departDelay="9.40" arrival="250.70" arrivalLane="e0_0" arrivalPos="4800.00" arrivalSpeed="35.85" duration="180.00" routeLength="4979.64" waitingTime="0.00" waitingCount="0" stopTime="0.00" timeLoss="70.42" rerouteNo="0" devices="tripinfo_CVToC.17 routing_CVToC.17 ssm_CVToC.17 toc_CVToC.17 driverstateCVToC.17" vType="vehLVOS895" speedFactor="1.26" vaporized=""/>
    <tripinfo id="LV.10" depart="83.10" departLane="entry_1" departPos="13.51" departSpeed="41.61" departDelay="17.50" arrival="252.50" arrivalLane="e0_1" arrivalPos="4800.00" arrivalSpeed="37.26" duration="169.40" routeLength="4986.49" waitingTime="0.00" waitingCount="0" stopTime="0.00" timeLoss="49.51" rerouteNo="0" devices="tripinfo_LV.10 routing_LV.10 ssm_LV.10" vType="vehLVOS328" speedFactor="1.15" vaporized=""/>
    <tripinfo id="CAVToC.29" depart="84.60" departLane="entry_1" departPos="0.86" departSpeed="34.78" departDelay="10.00" arrival="254.20" arrivalLane="e0_1" arrivalPos="4800.00" arrivalSpeed="34.62" duration="169.60" routeLength="4999.14" waitingTime="0.00" waitingCount="0" stopTime="0.00" timeLoss="25.79" rerouteNo="0" devices="tripinfo_CAVToC.29 routing_CAVToC.29 ssm_CAVToC.29 toc_CAVToC.29 driverstateCAVToC.29" vType="vehLVOS48" speedFactor="0.96" vaporized=""/>
    <tripinfo id="CAVToC.28" depart="73.40" departLane="entry_0" departPos="20.09" departSpeed="32.64" departDelay="5.90" arrival="255.50" arrivalLane="e0_0" arrivalPos="4800.00" arrivalSpeed="36.38" duration="182.10" routeLength="4979.91" waitingTime="0.00" waitingCount="0" stopTime="0.00" timeLoss="54.06" rerouteNo="0" devices="tripinfo_CAVToC.28 routing_CAVToC.28 ssm_CAVToC.28 toc_CAVToC.28 driverstateCAVToC.28" vType="vehLVOS575" speedFactor="1.08" vaporized=""/>
    <tripinfo id="CAVToC.33" depart="86.70" departLane="entry_1" departPos="3.99" departSpeed="34.39" departDelay="8.90" arrival="257.20" arrivalLane="e0_1" arrivalPos="4800.00" arrivalSpeed="34.35" duration="170.50" routeLength="4996.01" waitingTime="0.00" waitingCount="0" stopTime="0.00" timeLoss="25.17" rerouteNo="0" devices="tripinfo_CAVToC.33 routing_CAVToC.33 ssm_CAVToC.33 toc_CAVToC.33 driverstateCAVToC.33" vType="vehLVOS665" speedFactor="0.95" vaporized=""/>