<?xml version="1.0" encoding="UTF-8"?>

<!-- generated on Sat Jun 13 14:55:31 2020 by Eclipse SUMO Version v1_6_0+0553-a03471b
<configuration xmlns:xsi="http://www.w3.org/2001/XMLSchema-instance" xsi:noNamespaceSchemaLocation="http://sumo.dlr.de/xsd/sumoConfiguration.xsd">

    <input>
        <net-file value="scenario/UC5_1.net.xml"/>
        <route-files value="scenario/routes_trafficMix_0_trafficDemand_1_driverBehaviour_OS_seed_0.xml"/>
        <additional-files value="scenario/additionalsOutput_trafficMix_0_trafficDemand_1_driverBehaviour_OS_seed_0.xml,scenario/vTypesCAVToC_OS.add.xml,scenario/vTypesCVToC_OS.add.xml,scenario/vTypesLV_OS.add.xml,scenario/shapes.add.xml,scenario/view.add.xml"/>
    </input>

    <output>
        <tripinfo-output value="/home/noul_ar/workspace/tor-distribution/outputs/simulations/dnq_sample3015.zip_20200613-143151/tripinfo_4.xml"/>
    </output>

    <time>
        <step-length value="0.1"/>
    </time>

    <processing>
        <step-method.ballistic value="true"/>
        <ignore-route-errors value="true"/>
        <lanechange.duration value="2.5"/>
    </processing>

    <report>
        <no-step-log value="true"/>
    </report>

    <toc_device>
        <device.toc.ogNewTimeHeadway value="100"/>
        <device.toc.ogNewSpaceHeadway value="5"/>
        <device.toc.ogMaxDecel value="1"/>
        <device.toc.ogChangeRate value="1"/>
    </toc_device>

    <traci_server>
        <remote-port value="54307"/>
    </traci_server>

    <random_number>
        <seed value="1028"/>
    </random_number>

    <gui_only>
        <tracker-interval value="0.1"/>
    </gui_only>

</configuration>
-->

<tripinfos xmlns:xsi="http://www.w3.org/2001/XMLSchema-instance" xsi:noNamespaceSchemaLocation="http://sumo.dlr.de/xsd/tripinfo_file.xsd">
    <tripinfo id="CAVToC.0" depart="0.20" departLane="entry_1" departPos="199.90" departSpeed="28.35" departDelay="0.00" arrival="169.70" arrivalLane="e0_1" arrivalPos="4800.00" arrivalSpeed="28.30" duration="169.50" routeLength="4800.10" waitingTime="0.00" waitingCount="0" stopTime="0.00" timeLoss="0.14" rerouteNo="0" devices="tripinfo_CAVToC.0 routing_CAVToC.0 ssm_CAVToC.0 toc_CAVToC.0 driverstateCAVToC.0" vType="vehLVOS604" speedFactor="0.79" vaporized=""/>
    <tripinfo id="CVToC.0" depart="2.30" departLane="entry_1" departPos="182.66" departSpeed="29.18" departDelay="0.00" arrival="171.20" arrivalLane="e0_1" arrivalPos="4800.00" arrivalSpeed="31.72" duration="168.90" routeLength="4817.34" waitingTime="0.00" waitingCount="0" stopTime="0.00" timeLoss="33.74" rerouteNo="0" devices="tripinfo_CVToC.0 routing_CVToC.0 ssm_CVToC.0 toc_CVToC.0 driverstateCVToC.0" vType="vehLVOS424" speedFactor="0.99" vaporized=""/>
    <tripinfo id="CAVToC.1" depart="3.30" departLane="entry_0" departPos="199.90" departSpeed="35.90" departDelay="0.00" arrival="171.30" arrivalLane="e0_0" arrivalPos="4800.00" arrivalSpeed="30.84" duration="168.00" routeLength="4800.10" waitingTime="0.00" waitingCount="0" stopTime="0.00" timeLoss="34.23" rerouteNo="0" devices="tripinfo_CAVToC.1 routing_CAVToC.1 ssm_CAVToC.1 toc_CAVToC.1 driverstateCAVToC.1" vType="vehLVOS753" speedFactor="0.99" vaporized=""/>
    <tripinfo id="CVToC.2" depart="4.10" departLane="entry_0" departPos="165.29" departSpeed="30.10" departDelay="0.00" arrival="173.10" arrivalLane="e0_0" arrivalPos="4800.00" arrivalSpeed="30.07" duration="169.00" routeLength="4834.71" waitingTime="0.00" waitingCount="0" stopTime="0.00" timeLoss="8.38" rerouteNo="0" devices="tripinfo_CVToC.2 routing_CVToC.2 ssm_CVToC.2 toc_CVToC.2 driverstateCVToC.2" vType="vehLVOS819" speedFactor="0.83" vaporized=""/>
    <tripinfo id="CVToC.1" depart="3.00" departLane="entry_1" departPos="127.75" departSpeed="29.79" departDelay="0.00" arrival="173.50" arrivalLane="e0_1" arrivalPos="4800.00" arrivalSpeed="34.00" duration="170.50" routeLength="4872.25" waitingTime="0.00" waitingCount="0" stopTime="0.00" timeLoss="30.26" rerouteNo="0" devices="tripinfo_CVToC.1 routing_CVToC.1 ssm_CVToC.1 toc_CVToC.1 driverstateCVToC.1" vType="vehLVOS230" speedFactor="0.96" vaporized=""/>
    <tripinfo id="CAVToC.2" depart="3.40" departLane="entry_1" departPos="75.20" departSpeed="29.93" departDelay="0.00" arrival="175.10" arrivalLane="e0_1" arrivalPos="4800.00" arrivalSpeed="30.48" duration="171.70" routeLength="4924.80" waitingTime="0.00" waitingCount="0" stopTime="0.00" timeLoss="10.22" rerouteNo="0" devices="tripinfo_CAVToC.2 routing_CAVToC.2 ssm_CAVToC.2 toc_CAVToC.2 driverstateCAVToC.2" vType="vehLVOS461" speedFactor="0.84" vaporized=""/>
    <tripinfo id="CVToC.3" depart="4.50" departLane="entry_0" departPos="104.39" departSpeed="30.56" departDelay="0.00" arrival="175.90" arrivalLane="e0_0" arrivalPos="4800.00" arrivalSpeed="31.76" duration="171.40" routeLength="4895.61" waitingTime="0.00" waitingCount="0" stopTime="0.00" timeLoss="32.37" rerouteNo="0" devices="tripinfo_CVToC.3 routing_CVToC.3 ssm_CVToC.3 toc_CVToC.3 driverstateCVToC.3" vType="vehLVOS162" speedFactor="0.98" vaporized=""/>
    <tripinfo id="LV.1" depart="5.90" departLane="entry_1" departPos="30.29" departSpeed="37.34" departDelay="0.00" arrival="176.50" arrivalLane="e0_1" arrivalPos="4800.00" arrivalSpeed="33.54" duration="170.60" routeLength="4969.71" waitingTime="0.00" waitingCount="0" stopTime="0.00" timeLoss="37.43" rerouteNo="0" devices="tripinfo_LV.1 routing_LV.1 ssm_LV.1" vType="vehLVOS936" speedFactor="1.03" vaporized=""/>
    <tripinfo id="LV.0" depart="5.70" departLane="entry_0" departPos="73.24" departSpeed="35.18" departDelay="0.00" arrival="176.80" arrivalLane="e0_0" arrivalPos="4800.00" arrivalSpeed="32.59" duration="171.10" routeLength="4926.76" waitingTime="0.00" waitingCount="0" stopTime="0.00" timeLoss="31.03" rerouteNo="0" devices="tripinfo_LV.0 routing_LV.0 ssm_LV.0" vType="vehLVOS40" speedFactor="0.97" vaporized=""/>
    <tripinfo id="CVToC.4" depart="6.80" departLane="entry_0" departPos="39.45" departSpeed="34.61" departDelay="0.20" arrival="178.00" arrivalLane="e0_0" arrivalPos="4800.00" arrivalSpeed="33.71" duration="171.20" routeLength="4960.55" waitingTime="0.00" waitingCount="0" stopTime="0.00" timeLoss="28.55" rerouteNo="0" devices="tripinfo_CVToC.4 routing_CVToC.4 ssm_CVToC.4 toc_CVToC.4 driverstateCVToC.4" vType="vehLVOS821" speedFactor="0.96" vaporized=""/>
    <tripinfo id="CVToC.5" depart="7.60" departLane="entry_1" departPos="29.58" departSpeed="29.24" departDelay="0.00" arrival="178.30" arrivalLane="e0_1" arrivalPos="4800.00" arrivalSpeed="29.23" duration="170.70" routeLength="4970.42" waitingTime="0.00" waitingCount="0" stopTime="0.00" timeLoss="0.68" rerouteNo="0" devices="tripinfo_CVToC.5 routing_CVToC.5 ssm_CVToC.5 toc_CVToC.5 driverstateCVToC.5" vType="vehLVOS424" speedFactor="0.81" vaporized=""/>
    <tripinfo id="CVToC.7" depart="9.60" departLane="entry_1" departPos="3.16" departSpeed="30.25" departDelay="0.60" arrival="179.20" arrivalLane="e0_1" arrivalPos="4800.00" arrivalSpeed="30.34" duration="169.60" routeLength="4996.84" waitingTime="0.00" waitingCount="0" stopTime="0.00" timeLoss="38.10" rerouteNo="0" devices="tripinfo_CVToC.7 routing_CVToC.7 ssm_CVToC.7 toc_CVToC.7 driverstateCVToC.7" vType="vehLVOS69" speedFactor="1.05" vaporized=""/>
    <tripinfo id="CAVToC.5" depart="12.50" departLane="entry_1" departPos="3.38" departSpeed="31.08" departDelay="0.60" arrival="181.80" arrivalLane="e0_1" arrivalPos="4800.00" arrivalSpeed="34.24" duration="169.30" routeLength="4996.62" waitingTime="0.00" waitingCount="0" stopTime="0.00" timeLoss="40.34" rerouteNo="0" devices="tripinfo_CAVToC.5 routing_CAVToC.5 ssm_CAVToC.5 toc_CAVToC.5 driverstateCAVToC.5" vType="vehLVOS82" speedFactor="1.07" vaporized=""/>
    <tripinfo id="CAVToC.3" depart="8.20" departLane="entry_0" departPos="6.43" departSpeed="34.52" departDelay="0.10" arrival="181.90" arrivalLane="e0_0" arrivalPos="4800.00" arrivalSpeed="33.93" duration="173.70" routeLength="4993.57" waitingTime="0.00" waitingCount="0" stopTime="0.00" timeLoss="38.43" rerouteNo="0" devices="tripinfo_CAVToC.3 routing_CAVToC.3 ssm_CAVToC.3 toc_CAVToC.3 driverstateCAVToC.3" vType="vehLVOS832" speedFactor="1.02" vaporized=""/>
    <tripinfo id="CVToC.8" depart="15.20" departLane="entry_1" departPos="6.75" departSpeed="31.57" departDelay="5.60" arrival="182.80" arrivalLane="e0_1" arrivalPos="4800.00" arrivalSpeed="34.54" duration="167.60" routeLength="4993.25" waitingTime="0.00" waitingCount="0" stopTime="0.00" timeLoss="31.74" rerouteNo="0" devices="tripinfo_CVToC.8 routing_CVToC.8 ssm_CVToC.8 toc_CVToC.8 driverstateCVToC.8" vType="vehLVOS813" speedFactor="1.02" vaporized=""/>
    <tripinfo id="CAVToC.4" depart="10.60" departLane="entry_0" departPos="1.34" departSpeed="28.42" departDelay="1.50" arrival="183.80" arrivalLane="e0_0" arrivalPos="4800.00" arrivalSpeed="35.06" duration="173.20" routeLength="4998.66" waitingTime="0.00" waitingCount="0" stopTime="0.00" timeLoss="30.68" rerouteNo="0" devices="tripinfo_CAVToC.4 routing_CAVToC.4 ssm_CAVToC.4 toc_CAVToC.4 driverstateCAVToC.4" vType="vehLVOS225" speedFactor="0.97" vaporized=""/>
    <tripinfo id="LV.3" depart="20.40" departLane="entry_1" departPos="1.89" departSpeed="42.58" departDelay="4.50" arrival="184.40" arrivalLane="e0_1" arrivalPos="4800.00" arrivalSpeed="36.50" duration="164.00" routeLength="4998.11" waitingTime="0.00" waitingCount="0" stopTime="0.00" timeLoss="46.55" rerouteNo="0" devices="tripinfo_LV.3 routing_LV.3 ssm_LV.3" vType="vehLVOS55" speedFactor="1.18" vaporized=""/>
    <tripinfo id="LV.2" depart="13.80" departLane="entry_0" departPos="2.89" departSpeed="34.54" departDelay="1.20" arrival="185.20" arrivalLane="e0_0" arrivalPos="4800.00" arrivalSpeed="34.49" duration="171.40" routeLength="4997.11" waitingTime="0.00" waitingCount="0" stopTime="0.00" timeLoss="26.64" rerouteNo="0" devices="tripinfo_LV.2 routing_LV.2 ssm_LV.2" vType="vehLVOS870" speedFactor="0.96" vaporized=""/>
    <tripinfo id="CAVToC.6" depart="22.40" departLane="entry_1" departPos="1.20" departSpeed="36.57" departDelay="2.10" arrival="185.60" arrivalLane="e0_1" arrivalPos="4800.00" arrivalSpeed="34.61" duration="163.20" routeLength="4998.80" waitingTime="0.00" waitingCount="0" stopTime="0.00" timeLoss="37.17" rerouteNo="0" devices="tripinfo_CAVToC.6 routing_CAVToC.6 ssm_CAVToC.6 toc_CAVToC.6 driverstateCAVToC.6" vType="vehLVOS250" speedFactor="1.10" vaporized=""/>
    <tripinfo id="CVToC.9" depart="19.80" departLane="entry_0" departPos="24.27" departSpeed="29.12" departDelay="1.20" arrival="187.30" arrivalLane="e0_1" arrivalPos="4800.00" arrivalSpeed="34.32" duration="167.50" routeLength="4975.73" waitingTime="0.00" waitingCount="0" stopTime="0.00" timeLoss="23.94" rerouteNo="0" devices="tripinfo_CVToC.9 routing_CVToC.9 ssm_CVToC.9 toc_CVToC.9 driverstateCVToC.9" vType="vehLVOS41" speedFactor="0.96" vaporized=""/>
    <tripinfo id="CVToC.6" depart="16.50" departLane="entry_0" departPos="2.07" departSpeed="32.70" departDelay="8.60" arrival="189.40" arrivalLane="e0_0" arrivalPos="4800.00" arrivalSpeed="36.34" duration="172.90" routeLength="4997.93" waitingTime="0.00" waitingCount="0" stopTime="0.00" timeLoss="51.11" rerouteNo="0" devices="tripinfo_CVToC.6 routing_CVToC.6 ssm_CVToC.6 toc_CVToC.6 driverstateCVToC.6" vType="vehLVOS879" speedFactor="1.14" vaporized=""/>
    <tripinfo id="CAVToC.8" depart="24.20" departLane="entry_1" departPos="3.06" departSpeed="29.45" departDelay="0.30" arrival="194.50" arrivalLane="e0_1" arrivalPos="4800.00" arrivalSpeed="29.42" duration="170.30" routeLength="4996.94" waitingTime="0.00" waitingCount="0" stopTime="0.00" timeLoss="0.60" rerouteNo="0" devices="tripinfo_CAVToC.8 routing_CAVToC.8 ssm_CAVToC.8 toc_CAVToC.8 driverstateCAVToC.8" vType="vehLVOS938" speedFactor="0.82" vaporized=""/>
    <tripinfo id="CAVToC.9" depart="27.20" departLane="entry_1" departPos="13.45" departSpeed="30.13" departDelay="0.20" arrival="195.40" arrivalLane="e0_1" arrivalPos="4800.00" arrivalSpeed="31.56" duration="168.20" routeLength="4986.55" waitingTime="0.00" waitingCount="0" stopTime="0.00" timeLoss="25.97" rerouteNo="0" devices="tripinfo_CAVToC.9 routing_CAVToC.9 ssm_CAVToC.9 toc_CAVToC.9 driverstateCAVToC.9" vType="vehLVOS159" speedFactor="0.97" vaporized=""/>
    <tripinfo id="CAVToC.7" depart="23.50" departLane="entry_0" departPos="54.15" departSpeed="28.96" departDelay="0.00" arrival="195.80" arrivalLane="e0_0" arrivalPos="4800.00" arrivalSpeed="31.77" duration="172.30" routeLength="4945.85" waitingTime="0.00" waitingCount="0" stopTime="0.00" timeLoss="34.60" rerouteNo="0" devices="tripinfo_CAVToC.7 routing_CAVToC.7 ssm_CAVToC.7 toc_CAVToC.7 driverstateCAVToC.7" vType="vehLVOS121" speedFactor="0.99" vaporized=""/>
    <tripinfo id="CVToC.10" depart="25.90" departLane="entry_0" departPos="59.32" departSpeed="28.10" departDelay="0.00" arrival="206.40" arrivalLane="e0_0" arrivalPos="4800.00" arrivalSpeed="28.05" duration="180.50" routeLength="4940.68" waitingTime="0.00" waitingCount="0" stopTime="0.00" timeLoss="4.63" rerouteNo="0" devices="tripinfo_CVToC.10 routing_CVToC.10 ssm_CVToC.10 toc_CVToC.10 driverstateCVToC.10" vType="vehLVOS555" speedFactor="0.78" vaporized=""/>
    <tripinfo id="CAVToC.11" depart="29.20" departLane="entry_1" departPos="13.27" departSpeed="28.00" departDelay="0.00" arrival="207.40" arrivalLane="e0_1" arrivalPos="4800.00" arrivalSpeed="27.98" duration="178.20" routeLength="4986.73" waitingTime="0.00" waitingCount="0" stopTime="0.00" timeLoss="0.08" rerouteNo="0" devices="tripinfo_CAVToC.11 routing_CAVToC.11 ssm_CAVToC.11 toc_CAVToC.11 driverstateCAVToC.11" vType="vehLVOS127" speedFactor="0.78" vaporized=""/>
    <tripinfo id="CVToC.12" depart="31.30" departLane="entry_1" departPos="0.15" departSpeed="28.56" departDelay="2.00" arrival="208.20" arrivalLane="e0_1" arrivalPos="4800.00" arrivalSpeed="29.27" duration="176.90" routeLength="4999.85" waitingTime="0.00" waitingCount="0" stopTime="0.00" timeLoss="22.81" rerouteNo="0" devices="tripinfo_CVToC.12 routing_CVToC.12 ssm_CVToC.12 toc_CVToC.12 driverstateCVToC.12" vType="vehLVOS27" speedFactor="0.90" vaporized=""/>
    <tripinfo id="CAVToC.10" depart="28.10" departLane="entry_0" departPos="44.36" departSpeed="28.89" departDelay="0.60" arrival="209.20" arrivalLane="e0_0" arrivalPos="4800.00" arrivalSpeed="28.86" duration="181.10" routeLength="4955.64" waitingTime="0.00" waitingCount="0" stopTime="0.00" timeLoss="38.78" rerouteNo="0" devices="tripinfo_CAVToC.10 routing_CAVToC.10 ssm_CAVToC.10 toc_CAVToC.10 driverstateCAVToC.10" vType="vehLVOS211" speedFactor="0.96" vaporized=""/>
    <tripinfo id="CVToC.13" depart="34.60" departLane="entry_1" departPos="20.61" departSpeed="29.10" departDelay="3.80" arrival="210.20" arrivalLane="e0_1" arrivalPos="4800.00" arrivalSpeed="32.84" duration="175.60" routeLength="4979.39" waitingTime="0.00" waitingCount="0" stopTime="0.00" timeLoss="30.72" rerouteNo="0" devices="tripinfo_CVToC.13 routing_CVToC.13 ssm_CVToC.13 toc_CVToC.13 driverstateCVToC.13" vType="vehLVOS582" speedFactor="0.95" vaporized=""/>
    <tripinfo id="CVToC.11" depart="29.50" departLane="entry_0" departPos="6.54" departSpeed="29.52" departDelay="0.90" arrival="211.70" arrivalLane="e0_0" arrivalPos="4800.00" arrivalSpeed="32.81" duration="182.20" routeLength="4993.46" waitingTime="0.00" waitingCount="0" stopTime="0.00" timeLoss="42.89" rerouteNo="0" devices="tripinfo_CVToC.11 routing_CVToC.11 ssm_CVToC.11 toc_CVToC.11 driverstateCVToC.11" vType="vehLVOS743" speedFactor="0.99" vaporized=""/>
    <tripinfo id="CVToC.16" depart="37.20" departLane="entry_1" departPos="11.32" departSpeed="29.96" departDelay="1.20" arrival="212.00" arrivalLane="e0_1" arrivalPos="4800.00" arrivalSpeed="30.97" duration="174.80" routeLength="4988.68" waitingTime="0.00" waitingCount="0" stopTime="0.00" timeLoss="42.61" rerouteNo="0" devices="tripinfo_CVToC.16 routing_CVToC.16 ssm_CVToC.16 toc_CVToC.16 driverstateCVToC.16" vType="vehLVOS700" speedFactor="1.05" vaporized=""/>
    <tripinfo id="CVToC.14" depart="32.20" departLane="entry_0" departPos="10.84" departSpeed="26.53" departDelay="0.40" arrival="213.20" arrivalLane="e0_0" arrivalPos="4800.00" arrivalSpeed="32.65" duration="181.00" routeLength="4989.16" waitingTime="0.00" waitingCount="0" stopTime="0.00" timeLoss="32.54" rerouteNo="0" devices="tripinfo_CVToC.14 routing_CVToC.14 ssm_CVToC.14 toc_CVToC.14 driverstateCVToC.14" vType="vehLVOS328" speedFactor="0.93" vaporized=""/>
    <tripinfo id="CVToC.17" depart="39.40" departLane="entry_1" departPos="2.13" departSpeed="30.48" departDelay="0.60" arrival="213.70" arrivalLane="e0_1" arrivalPos="4800.00" arrivalSpeed="33.83" duration="174.30" routeLength="4997.87" waitingTime="0.00" waitingCount="0" stopTime="0.00" timeLoss="35.38" rerouteNo="0" devices="tripinfo_CVToC.17 routing_CVToC.17 ssm_CVToC.17 toc_CVToC.17 driverstateCVToC.17" vType="vehLVOS292" speedFactor="1.00" vaporized=""/>
    <tripinfo id="LV.6" depart="41.50" departLane="entry_1" departPos="8.21" departSpeed="31.52" departDelay="6.20" arrival="215.20" arrivalLane="e0_0" arrivalPos="4800.00" arrivalSpeed="31.51" duration="173.70" routeLength="4991.79" waitingTime="0.00" waitingCount="0" stopTime="0.00" timeLoss="15.31" rerouteNo="0" devices="tripinfo_LV.6 routing_LV.6 ssm_LV.6" vType="vehLVOS286" speedFactor="0.87" vaporized=""/>
    <tripinfo id="CAVToC.16" depart="44.60" departLane="entry_0" departPos="9.59" departSpeed="26.52" departDelay="2.20" arrival="215.30" arrivalLane="e0_1" arrivalPos="4800.00" arrivalSpeed="33.86" duration="170.70" routeLength="4990.41" waitingTime="0.00" waitingCount="0" stopTime="0.00" timeLoss="40.24" rerouteNo="0" devices="tripinfo_CAVToC.16 routing_CAVToC.16 ssm_CAVToC.16 toc_CAVToC.16 driverstateCAVToC.16" vType="vehLVOS921" speedFactor="1.06" vaporized=""/>
    <tripinfo id="CAVToC.12" depart="35.30" departLane="entry_0" departPos="9.79" departSpeed="27.18" departDelay="6.00" arrival="216.90" arrivalLane="e0_0" arrivalPos="4800.00" arrivalSpeed="34.51" duration="181.60" routeLength="4990.21" waitingTime="0.00" waitingCount="0" stopTime="0.00" timeLoss="47.71" rerouteNo="0" devices="tripinfo_CAVToC.12 routing_CAVToC.12 ssm_CAVToC.12 toc_CAVToC.12 driverstateCAVToC.12" vType="vehLVOS78" speedFactor="1.03" vaporized=""/>
    <tripinfo id="LV.7" depart="46.60" departLane="entry_1" departPos="12.30" departSpeed="23.83" departDelay="10.40" arrival="218.20" arrivalLane="e0_1" arrivalPos="4800.00" arrivalSpeed="33.58" duration="171.60" routeLength="4987.70" waitingTime="0.00" waitingCount="0" stopTime="0.00" timeLoss="23.09" rerouteNo="0" devices="tripinfo_LV.7 routing_LV.7 ssm_LV.7" vType="vehLVOS690" speedFactor="0.93" vaporized=""/>
    <tripinfo id="CVToC.15" depart="39.10" departLane="entry_0" departPos="22.68" departSpeed="26.96" departDelay="6.10" arrival="219.10" arrivalLane="e0_0" arrivalPos="4800.00" arrivalSpeed="33.08" duration="180.00" routeLength="4977.32" waitingTime="0.00" waitingCount="0" stopTime="0.00" timeLoss="54.02" rerouteNo="0" devices="tripinfo_CVToC.15 routing_CVToC.15 ssm_CVToC.15 toc_CVToC.15 driverstateCVToC.15" vType="vehLVOS444" speedFactor="1.09" vaporized=""/>
    <tripinfo id="CAVToC.13" depart="51.90" departLane="entry_1" departPos="72.12" departSpeed="27.12" departDelay="14.70" arrival="219.80" arrivalLane="e0_1" arrivalPos="4800.00" arrivalSpeed="31.56" duration="167.90" routeLength="4927.88" waitingTime="0.00" waitingCount="0" stopTime="0.00" timeLoss="11.74" rerouteNo="0" devices="tripinfo_CAVToC.13 routing_CAVToC.13 ssm_CAVToC.13 toc_CAVToC.13 driverstateCAVToC.13" vType="vehLVOS11" speedFactor="0.87" vaporized=""/>
    <tripinfo id="CAVToC.14" depart="41.10" departLane="entry_0" departPos="2.71" departSpeed="26.75" departDelay="3.60" arrival="220.60" arrivalLane="e0_0" arrivalPos="4800.00" arrivalSpeed="32.28" duration="179.50" routeLength="4997.29" waitingTime="0.00" waitingCount="0" stopTime="0.00" timeLoss="27.72" rerouteNo="0" devices="tripinfo_CAVToC.14 routing_CAVToC.14 ssm_CAVToC.14 toc_CAVToC.14 driverstateCAVToC.14" vType="vehLVOS662" speedFactor="0.91" vaporized=""/>
    <tripinfo id="CVToC.20" depart="55.10" departLane="entry_1" departPos="76.51" departSpeed="29.71" departDelay="13.70" arrival="221.00" arrivalLane="e0_1" arrivalPos="4800.00" arrivalSpeed="35.31" duration="165.90" routeLength="4923.49" waitingTime="0.00" waitingCount="0" stopTime="0.00" timeLoss="39.70" rerouteNo="0" devices="tripinfo_CVToC.20 routing_CVToC.20 ssm_CVToC.20 toc_CVToC.20 driverstateCVToC.20" vType="vehLVOS248" speedFactor="1.08" vaporized=""/>
    <tripinfo id="CVToC.19" depart="48.20" departLane="entry_0" departPos="96.16" departSpeed="26.46" departDelay="8.50" arrival="222.00" arrivalLane="e0_0" arrivalPos="4800.00" arrivalSpeed="34.13" duration="173.80" routeLength="4903.84" waitingTime="0.00" waitingCount="0" stopTime="0.00" timeLoss="48.98" rerouteNo="0" devices="tripinfo_CVToC.19 routing_CVToC.19 ssm_CVToC.19 toc_CVToC.19 driverstateCVToC.19" vType="vehLVOS795" speedFactor="1.09" vaporized=""/>
    <tripinfo id="LV.4" depart="58.50" departLane="entry_1" departPos="0.61" departSpeed="44.20" departDelay="40.10" arrival="222.20" arrivalLane="e0_1" arrivalPos="4800.00" arrivalSpeed="34.42" duration="163.70" routeLength="4999.39" waitingTime="0.00" waitingCount="0" stopTime="0.00" timeLoss="50.56" rerouteNo="0" devices="tripinfo_LV.4 routing_LV.4 ssm_LV.4" vType="vehLVOS394" speedFactor="1.22" vaporized=""/>
    <tripinfo id="CAVToC.15" depart="48.20" departLane="entry_0" departPos="22.63" departSpeed="27.23" departDelay="6.10" arrival="224.10" arrivalLane="e0_0" arrivalPos="4800.00" arrivalSpeed="32.96" duration="175.90" routeLength="4977.37" waitingTime="0.00" waitingCount="0" stopTime="0.00" timeLoss="24.94" rerouteNo="0" devices="tripinfo_CAVToC.15 routing_CAVToC.15 ssm_CAVToC.15 toc_CAVToC.15 driverstateCAVToC.15" vType="vehLVOS489" speedFactor="0.91" vaporized=""/>
    <tripinfo id="CVToC.18" depart="50.90" departLane="entry_0" departPos="6.16" departSpeed="26.96" departDelay="11.40" arrival="225.30" arrivalLane="e0_0" arrivalPos="4800.00" arrivalSpeed="34.69" duration="174.40" routeLength="4993.84" waitingTime="0.00" waitingCount="0" stopTime="0.00" timeLoss="42.08" rerouteNo="0" devices="tripinfo_CVToC.18 routing_CVToC.18 ssm_CVToC.18 toc_CVToC.18 driverstateCVToC.18" vType="vehLVOS403" speedFactor="1.05" vaporized=""/>
    <tripinfo id="CVToC.22" depart="61.20" departLane="entry_1" departPos="33.28" departSpeed="36.67" departDelay="16.10" arrival="226.30" arrivalLane="e0_1" arrivalPos="4800.00" arrivalSpeed="39.93" duration="165.10" routeLength="4966.72" waitingTime="0.00" waitingCount="0" stopTime="0.00" timeLoss="42.21" rerouteNo="0" devices="tripinfo_CVToC.22 routing_CVToC.22 ssm_CVToC.22 toc_CVToC.22 driverstateCVToC.22" vType="vehLVOS901" speedFactor="1.12" vaporized=""/>
    <tripinfo id="CVToC.21" depart="55.70" departLane="entry_0" departPos="48.06" departSpeed="27.33" departDelay="10.70" arrival="227.60" arrivalLane="e0_0" arrivalPos="4800.00" arrivalSpeed="37.45" duration="171.90" routeLength="4951.94" waitingTime="0.00" waitingCount="0" stopTime="0.00" timeLoss="39.64" rerouteNo="0" devices="tripinfo_CVToC.21 routing_CVToC.21 ssm_CVToC.21 toc_CVToC.21 driverstateCVToC.21" vType="vehLVOS236" speedFactor="1.04" vaporized=""/>
    <tripinfo id="CAVToC.18" depart="62.80" departLane="entry_1" departPos="20.22" departSpeed="34.38" departDelay="13.30" arrival="228.20" arrivalLane="e0_1" arrivalPos="4800.00" arrivalSpeed="34.36" duration="165.40" routeLength="4979.78" waitingTime="0.00" waitingCount="0" stopTime="0.00" timeLoss="20.49" rerouteNo="0" devices="tripinfo_CAVToC.18 routing_CAVToC.18 ssm_CAVToC.18 toc_CAVToC.18 driverstateCAVToC.18" vType="vehLVOS935" speedFactor="0.95" vaporized=""/>
    <tripinfo id="LV.10" depart="63.80" departLane="entry_1" departPos="47.01" departSpeed="31.28" departDelay="10.60" arrival="229.30" arrivalLane="e0_0" arrivalPos="4800.00" arrivalSpeed="31.26" duration="165.50" routeLength="4952.99" waitingTime="0.00" waitingCount="0" stopTime="0.00" timeLoss="7.14" rerouteNo="0" devices="tripinfo_LV.10 routing_LV.10 ssm_LV.10" vType="vehLVOS517" speedFactor="0.87" vaporized=""/>
    <tripinfo id="CVToC.24" depart="67.00" departLane="entry_1" departPos="25.25" departSpeed="30.12" departDelay="20.90" arrival="229.90" arrivalLane="e0_1" arrivalPos="4800.00" arrivalSpeed="34.44" duration="162.90" routeLength="4974.75" waitingTime="0.00" waitingCount="0" stopTime="0.00" timeLoss="18.56" rerouteNo="0" devices="tripinfo_CVToC.24 routing_CVToC.24 ssm_CVToC.24 toc_CVToC.24 driverstateCVToC.24" vType="vehLVOS437" speedFactor="0.95" vaporized=""/>
    <tripinfo id="LV.11" depart="64.70" departLane="entry_1" departPos="29.95" departSpeed="30.23" departDelay="9.90" arrival="233.00" arrivalLane="e0_0" arrivalPos="4800.00" arrivalSpeed="30.16" duration="168.30" routeLength="4970.05" waitingTime="0.00" waitingCount="0" stopTime="0.00" timeLoss="3.87" rerouteNo="0" devices="tripinfo_LV.11 routing_LV.11 ssm_LV.11" vType="vehLVOS933" speedFactor="0.84" vaporized=""/>
    <tripinfo id="CVToC.29" depart="69.00" departLane="entry_0" departPos="41.22" departSpeed="30.25" departDelay="9.60" arrival="233.20" arrivalLane="e0_1" arrivalPos="4800.00" arrivalSpeed="38.22" duration="164.20" routeLength="4958.78" waitingTime="0.00" waitingCount="0" stopTime="0.00" timeLoss="34.39" rerouteNo="0" devices="tripinfo_CVToC.29 routing_CVToC.29 ssm_CVToC.29 toc_CVToC.29 driverstateCVToC.29" vType="vehLVOS58" speedFactor="1.06" vaporized=""/>
    <tripinfo id="CAVToC.17" depart="57.00" departLane="entry_0" departPos="3.03" departSpeed="28.45" departDelay="11.50" arrival="234.30" arrivalLane="e0_0" arrivalPos="4800.00" arrivalSpeed="32.15" duration="177.30" routeLength="4996.97" waitingTime="0.00" waitingCount="0" stopTime="0.00" timeLoss="38.74" rerouteNo="0" devices="tripinfo_CAVToC.17 routing_CAVToC.17 ssm_CAVToC.17 toc_CAVToC.17 driverstateCAVToC.17" vType="vehLVOS87" speedFactor="1.00" vaporized=""/>
    <tripinfo id="CAVToC.19" depart="71.40" departLane="entry_1" departPos="61.63" departSpeed="31.59" departDelay="21.70" arrival="234.70" arrivalLane="e0_1" arrivalPos="4800.00" arrivalSpeed="38.67" duration="163.30" routeLength="4938.37" waitingTime="0.00" waitingCount="0" stopTime="0.00" timeLoss="48.14" rerouteNo="0" devices="tripinfo_CAVToC.19 routing_CAVToC.19 ssm_CAVToC.19 toc_CAVToC.19 driverstateCAVToC.19" vType="vehLVOS153" speedFactor="1.19" vaporized=""/>
    <tripinfo id="LV.14" depart="72.80" departLane="entry_1" departPos="24.74" departSpeed="35.35" departDelay="10.80" arrival="236.40" arrivalLane="e0_1" arrivalPos="4800.00" arrivalSpeed="35.26" duration="163.60" routeLength="4975.26" waitingTime="0.00" waitingCount="0" stopTime="0.00" timeLoss="22.86" rerouteNo="0" devices="tripinfo_LV.14 routing_LV.14 ssm_LV.14" vType="vehLVOS518" speedFactor="0.98" vaporized=""/>
    <tripinfo id="CVToC.28" depart="74.40" departLane="entry_1" departPos="3.85" departSpeed="34.92" departDelay="15.10" arrival="237.30" arrivalLane="e0_1" arrivalPos="4800.00" arrivalSpeed="36.24" duration="162.90" routeLength="4996.15" waitingTime="0.00" waitingCount="0" stopTime="0.00" timeLoss="25.57" rerouteNo="0" devices="tripinfo_CVToC.28 routing_CVToC.28 ssm_CVToC.28 toc_CVToC.28 driverstateCVToC.28" vType="vehLVOS725" speedFactor="1.01" vaporized=""/>
    <tripinfo id="CVToC.23" depart="60.00" departLane="entry_0" departPos="23.81" departSpeed="28.90" departDelay="14.80" arrival="238.90" arrivalLane="e0_0" arrivalPos="4800.00" arrivalSpeed="30.68" duration="178.90" routeLength="4976.19" waitingTime="0.00" waitingCount="0" stopTime="0.00" timeLoss="16.84" rerouteNo="0" devices="tripinfo_CVToC.23 routing_CVToC.23 ssm_CVToC.23 toc_CVToC.23 driverstateCVToC.23" vType="vehLVOS249" speedFactor="0.85" vaporized=""/>
    <tripinfo id="CVToC.25" depart="62.50" departLane="entry_0" departPos="11.03" departSpeed="29.98" departDelay="13.90" arrival="239.90" arrivalLane="e0_0" arrivalPos="4800.00" arrivalSpeed="32.69" duration="177.40" routeLength="4988.97" waitingTime="0.00" waitingCount="0" stopTime="0.00" timeLoss="52.30" rerouteNo="0" devices="tripinfo_CVToC.25 routing_CVToC.25 ssm_CVToC.25 toc_CVToC.25 driverstateCVToC.25" vType="vehLVOS13" speedFactor="1.10" vaporized=""/>
    <tripinfo id="LV.13" depart="75.80" departLane="entry_1" departPos="45.07" departSpeed="31.99" departDelay="14.70" arrival="240.30" arrivalLane="e0_1" arrivalPos="4800.00" arrivalSpeed="31.93" duration="164.50" routeLength="4954.93" waitingTime="0.00" waitingCount="0" stopTime="0.00" timeLoss="9.53" rerouteNo="0" devices="tripinfo_LV.13 routing_LV.13 ssm_LV.13" vType="vehLVOS192" speedFactor="0.89" vaporized=""/>
    <tripinfo id="CAVToC.20" depart="64.80" departLane="entry_0" departPos="3.43" departSpeed="30.62" departDelay="12.40" arrival="241.20" arrivalLane="e0_0" arrivalPos="4800.00" arrivalSpeed="33.22" duration="176.40" routeLength="4996.57" waitingTime="0.00" waitingCount="0" stopTime="0.00" timeLoss="30.43" rerouteNo="0" devices="tripinfo_CAVToC.20 routing_CAVToC.20 ssm_CAVToC.20 toc_CAVToC.20 driverstateCAVToC.20" vType="vehLVOS348" speedFactor="0.95" vaporized=""/>
    <tripinfo id="CVToC.30" depart="79.20" departLane="entry_1" departPos="81.03" departSpeed="31.43" departDelay="17.60" arrival="241.20" arrivalLane="e0_1" arrivalPos="4800.00" arrivalSpeed="33.67" duration="162.00" routeLength="4918.97" waitingTime="0.00" waitingCount="0" stopTime="0.00" timeLoss="17.18" rerouteNo="0" devices="tripinfo_CVToC.30 routing_CVToC.30 ssm_CVToC.30 toc_CVToC.30 driverstateCVToC.30" vType="vehLVOS186" speedFactor="0.94" vaporized=""/>