<?xml version="1.0" encoding="UTF-8"?>

<!-- generated on Sat Jun 13 14:47:34 2020 by Eclipse SUMO Version v1_6_0+0553-a03471b
<configuration xmlns:xsi="http://www.w3.org/2001/XMLSchema-instance" xsi:noNamespaceSchemaLocation="http://sumo.dlr.de/xsd/sumoConfiguration.xsd">

    <input>
        <net-file value="scenario/UC5_1.net.xml"/>
        <route-files value="scenario/routes_trafficMix_0_trafficDemand_1_driverBehaviour_OS_seed_0.xml"/>
        <additional-files value="scenario/additionalsOutput_trafficMix_0_trafficDemand_1_driverBehaviour_OS_seed_0.xml,scenario/vTypesCAVToC_OS.add.xml,scenario/vTypesCVToC_OS.add.xml,scenario/vTypesLV_OS.add.xml,scenario/shapes.add.xml,scenario/view.add.xml"/>
    </input>

    <output>
        <tripinfo-output value="/home/noul_ar/workspace/tor-distribution/outputs/simulations/dnq_sample3015.zip_20200613-143151/tripinfo_3.xml"/>
    </output>

    <time>
        <step-length value="0.1"/>
    </time>

    <processing>
        <step-method.ballistic value="true"/>
        <ignore-route-errors value="true"/>
        <lanechange.duration value="2.5"/>
    </processing>

    <report>
        <no-step-log value="true"/>
    </report>

    <toc_device>
        <device.toc.ogNewTimeHeadway value="100"/>
        <device.toc.ogNewSpaceHeadway value="5"/>
        <device.toc.ogMaxDecel value="1"/>
        <device.toc.ogChangeRate value="1"/>
    </toc_device>

    <traci_server>
        <remote-port value="59635"/>
    </traci_server>

    <random_number>
        <seed value="1027"/>
    </random_number>

    <gui_only>
        <tracker-interval value="0.1"/>
    </gui_only>

</configuration>
-->

<tripinfos xmlns:xsi="http://www.w3.org/2001/XMLSchema-instance" xsi:noNamespaceSchemaLocation="http://sumo.dlr.de/xsd/tripinfo_file.xsd">
    <tripinfo id="CVToC.0" depart="2.30" departLane="entry_1" departPos="199.90" departSpeed="36.03" departDelay="0.00" arrival="135.70" arrivalLane="e0_0" arrivalPos="4800.00" arrivalSpeed="36.01" duration="133.40" routeLength="4800.10" waitingTime="0.00" waitingCount="0" stopTime="0.00" timeLoss="0.09" rerouteNo="0" devices="tripinfo_CVToC.0 routing_CVToC.0 ssm_CVToC.0 toc_CVToC.0 driverstateCVToC.0" vType="vehLVOS994" speedFactor="1.00" vaporized=""/>
    <tripinfo id="CAVToC.0" depart="0.90" departLane="entry_0" departPos="199.90" departSpeed="34.72" departDelay="0.00" arrival="139.20" arrivalLane="e0_0" arrivalPos="4800.00" arrivalSpeed="34.72" duration="138.30" routeLength="4800.10" waitingTime="0.00" waitingCount="0" stopTime="0.00" timeLoss="0.01" rerouteNo="0" devices="tripinfo_CAVToC.0 routing_CAVToC.0 ssm_CAVToC.0 toc_CAVToC.0 driverstateCAVToC.0" vType="vehLVOS962" speedFactor="0.96" vaporized=""/>
    <tripinfo id="CVToC.1" depart="3.30" departLane="entry_1" departPos="157.41" departSpeed="36.19" departDelay="0.00" arrival="140.70" arrivalLane="e0_1" arrivalPos="4800.00" arrivalSpeed="36.56" duration="137.40" routeLength="4842.59" waitingTime="0.00" waitingCount="0" stopTime="0.00" timeLoss="5.01" rerouteNo="0" devices="tripinfo_CVToC.1 routing_CVToC.1 ssm_CVToC.1 toc_CVToC.1 driverstateCVToC.1" vType="vehLVOS657" speedFactor="1.01" vaporized=""/>
    <tripinfo id="CAVToC.2" depart="4.70" departLane="entry_0" departPos="199.90" departSpeed="36.46" departDelay="0.00" arrival="140.90" arrivalLane="e0_0" arrivalPos="4800.00" arrivalSpeed="36.84" duration="136.20" routeLength="4800.10" waitingTime="0.00" waitingCount="0" stopTime="0.00" timeLoss="12.47" rerouteNo="0" devices="tripinfo_CAVToC.2 routing_CAVToC.2 ssm_CAVToC.2 toc_CAVToC.2 driverstateCAVToC.2" vType="vehLVOS6" speedFactor="1.07" vaporized=""/>
    <tripinfo id="CAVToC.1" depart="3.70" departLane="entry_1" departPos="89.43" departSpeed="36.34" departDelay="0.00" arrival="141.50" arrivalLane="e0_1" arrivalPos="4800.00" arrivalSpeed="37.84" duration="137.80" routeLength="4910.57" waitingTime="0.00" waitingCount="0" stopTime="0.00" timeLoss="7.98" rerouteNo="0" devices="tripinfo_CAVToC.1 routing_CAVToC.1 ssm_CAVToC.1 toc_CAVToC.1 driverstateCAVToC.1" vType="vehLVOS597" speedFactor="1.05" vaporized=""/>
    <tripinfo id="LV.0" depart="3.90" departLane="entry_1" departPos="0.45" departSpeed="40.95" departDelay="0.10" arrival="142.80" arrivalLane="e0_1" arrivalPos="4800.00" arrivalSpeed="38.69" duration="138.90" routeLength="4999.55" waitingTime="0.00" waitingCount="0" stopTime="0.00" timeLoss="16.77" rerouteNo="0" devices="tripinfo_LV.0 routing_LV.0 ssm_LV.0" vType="vehLVOS602" speedFactor="1.13" vaporized=""/>
    <tripinfo id="LV.1" depart="5.30" departLane="entry_1" departPos="44.96" departSpeed="38.10" departDelay="0.00" arrival="143.80" arrivalLane="e0_1" arrivalPos="4800.00" arrivalSpeed="38.00" duration="138.50" routeLength="4955.04" waitingTime="0.00" waitingCount="0" stopTime="0.00" timeLoss="8.42" rerouteNo="0" devices="tripinfo_LV.1 routing_LV.1 ssm_LV.1" vType="vehLVOS213" speedFactor="1.06" vaporized=""/>
    <tripinfo id="CAVToC.3" depart="5.10" departLane="entry_0" departPos="121.22" departSpeed="37.00" departDelay="0.10" arrival="144.20" arrivalLane="e0_0" arrivalPos="4800.00" arrivalSpeed="38.67" duration="139.10" routeLength="4878.78" waitingTime="0.00" waitingCount="0" stopTime="0.00" timeLoss="28.27" rerouteNo="0" devices="tripinfo_CAVToC.3 routing_CAVToC.3 ssm_CAVToC.3 toc_CAVToC.3 driverstateCAVToC.3" vType="vehLVOS679" speedFactor="1.22" vaporized=""/>
    <tripinfo id="CAVToC.6" depart="6.60" departLane="entry_1" departPos="17.39" departSpeed="36.34" departDelay="0.20" arrival="145.50" arrivalLane="e0_1" arrivalPos="4800.00" arrivalSpeed="37.59" duration="138.90" routeLength="4982.61" waitingTime="0.00" waitingCount="0" stopTime="0.00" timeLoss="6.51" rerouteNo="0" devices="tripinfo_CAVToC.6 routing_CAVToC.6 ssm_CAVToC.6 toc_CAVToC.6 driverstateCAVToC.6" vType="vehLVOS434" speedFactor="1.04" vaporized=""/>
    <tripinfo id="CAVToC.4" depart="5.90" departLane="entry_0" departPos="64.24" departSpeed="36.59" departDelay="0.30" arrival="147.20" arrivalLane="e0_0" arrivalPos="4800.00" arrivalSpeed="39.73" duration="141.30" routeLength="4935.76" waitingTime="0.00" waitingCount="0" stopTime="0.00" timeLoss="17.14" rerouteNo="0" devices="tripinfo_CAVToC.4 routing_CAVToC.4 ssm_CAVToC.4 toc_CAVToC.4 driverstateCAVToC.4" vType="vehLVOS574" speedFactor="1.10" vaporized=""/>
    <tripinfo id="CAVToC.5" depart="6.60" departLane="entry_0" departPos="1.23" departSpeed="36.64" departDelay="0.50" arrival="148.10" arrivalLane="e0_1" arrivalPos="4800.00" arrivalSpeed="40.19" duration="141.50" routeLength="4998.77" waitingTime="0.00" waitingCount="0" stopTime="0.00" timeLoss="17.13" rerouteNo="0" devices="tripinfo_CAVToC.5 routing_CAVToC.5 ssm_CAVToC.5 toc_CAVToC.5 driverstateCAVToC.5" vType="vehLVOS866" speedFactor="1.11" vaporized=""/>
    <tripinfo id="CVToC.2" depart="8.20" departLane="entry_1" departPos="1.85" departSpeed="35.45" departDelay="1.30" arrival="151.00" arrivalLane="e0_1" arrivalPos="4800.00" arrivalSpeed="35.43" duration="142.80" routeLength="4998.15" waitingTime="0.00" waitingCount="0" stopTime="0.00" timeLoss="1.80" rerouteNo="0" devices="tripinfo_CVToC.2 routing_CVToC.2 ssm_CVToC.2 toc_CVToC.2 driverstateCVToC.2" vType="vehLVOS812" speedFactor="0.98" vaporized=""/>
    <tripinfo id="CVToC.3" depart="8.90" departLane="entry_0" departPos="4.94" departSpeed="36.35" departDelay="0.90" arrival="153.00" arrivalLane="e0_0" arrivalPos="4800.00" arrivalSpeed="37.50" duration="144.10" routeLength="4995.06" waitingTime="0.00" waitingCount="0" stopTime="0.00" timeLoss="11.21" rerouteNo="0" devices="tripinfo_CVToC.3 routing_CVToC.3 ssm_CVToC.3 toc_CVToC.3 driverstateCVToC.3" vType="vehLVOS153" speedFactor="1.04" vaporized=""/>
    <tripinfo id="LV.2" depart="11.40" departLane="entry_0" departPos="18.33" departSpeed="37.94" departDelay="0.10" arrival="153.00" arrivalLane="e0_1" arrivalPos="4800.00" arrivalSpeed="37.85" duration="141.60" routeLength="4981.67" waitingTime="0.00" waitingCount="0" stopTime="0.00" timeLoss="10.27" rerouteNo="0" devices="tripinfo_LV.2 routing_LV.2 ssm_LV.2" vType="vehLVOS915" speedFactor="1.05" vaporized=""/>
    <tripinfo id="CAVToC.7" depart="10.40" departLane="entry_1" departPos="10.97" departSpeed="33.88" departDelay="2.20" arrival="159.50" arrivalLane="e0_0" arrivalPos="4800.00" arrivalSpeed="33.73" duration="149.10" routeLength="4989.03" waitingTime="0.00" waitingCount="0" stopTime="0.00" timeLoss="1.75" rerouteNo="0" devices="tripinfo_CAVToC.7 routing_CAVToC.7 ssm_CAVToC.7 toc_CAVToC.7 driverstateCAVToC.7" vType="vehLVOS457" speedFactor="0.94" vaporized=""/>
    <tripinfo id="CVToC.4" depart="12.30" departLane="entry_1" departPos="7.88" departSpeed="31.23" departDelay="0.20" arrival="172.90" arrivalLane="e0_1" arrivalPos="4800.00" arrivalSpeed="31.23" duration="160.60" routeLength="4992.12" waitingTime="0.00" waitingCount="0" stopTime="0.00" timeLoss="0.72" rerouteNo="0" devices="tripinfo_CVToC.4 routing_CVToC.4 ssm_CVToC.4 toc_CVToC.4 driverstateCVToC.4" vType="vehLVOS807" speedFactor="0.86" vaporized=""/>
    <tripinfo id="CVToC.5" depart="13.00" departLane="entry_0" departPos="9.70" departSpeed="31.63" departDelay="0.00" arrival="173.50" arrivalLane="e0_0" arrivalPos="4800.00" arrivalSpeed="31.61" duration="160.50" routeLength="4990.30" waitingTime="0.00" waitingCount="0" stopTime="0.00" timeLoss="2.72" rerouteNo="0" devices="tripinfo_CVToC.5 routing_CVToC.5 ssm_CVToC.5 toc_CVToC.5 driverstateCVToC.5" vType="vehLVOS87" speedFactor="0.88" vaporized=""/>
    <tripinfo id="CAVToC.8" depart="15.50" departLane="entry_1" departPos="17.62" departSpeed="32.35" departDelay="3.70" arrival="174.60" arrivalLane="e0_1" arrivalPos="4800.00" arrivalSpeed="33.96" duration="159.10" routeLength="4982.38" waitingTime="0.00" waitingCount="0" stopTime="0.00" timeLoss="38.21" rerouteNo="0" devices="tripinfo_CAVToC.8 routing_CAVToC.8 ssm_CAVToC.8 toc_CAVToC.8 driverstateCAVToC.8" vType="vehLVOS704" speedFactor="1.14" vaporized=""/>
    <tripinfo id="CAVToC.9" depart="17.90" departLane="entry_1" departPos="7.58" departSpeed="33.11" departDelay="0.70" arrival="175.50" arrivalLane="e0_1" arrivalPos="4800.00" arrivalSpeed="35.07" duration="157.60" routeLength="4992.42" waitingTime="0.00" waitingCount="0" stopTime="0.00" timeLoss="32.87" rerouteNo="0" devices="tripinfo_CAVToC.9 routing_CAVToC.9 ssm_CAVToC.9 toc_CAVToC.9 driverstateCAVToC.9" vType="vehLVOS505" speedFactor="1.11" vaporized=""/>
    <tripinfo id="CVToC.6" depart="15.60" departLane="entry_0" departPos="8.46" departSpeed="31.93" departDelay="0.10" arrival="175.80" arrivalLane="e0_0" arrivalPos="4800.00" arrivalSpeed="35.22" duration="160.20" routeLength="4991.54" waitingTime="0.00" waitingCount="0" stopTime="0.00" timeLoss="24.82" rerouteNo="0" devices="tripinfo_CVToC.6 routing_CVToC.6 ssm_CVToC.6 toc_CVToC.6 driverstateCVToC.6" vType="vehLVOS223" speedFactor="1.02" vaporized=""/>
    <tripinfo id="CVToC.7" depart="19.30" departLane="entry_0" departPos="9.99" departSpeed="31.14" departDelay="1.20" arrival="184.10" arrivalLane="e0_1" arrivalPos="4800.00" arrivalSpeed="32.85" duration="164.80" routeLength="4990.01" waitingTime="0.00" waitingCount="0" stopTime="0.00" timeLoss="12.85" rerouteNo="0" devices="tripinfo_CVToC.7 routing_CVToC.7 ssm_CVToC.7 toc_CVToC.7 driverstateCVToC.7" vType="vehLVOS426" speedFactor="0.91" vaporized=""/>
    <tripinfo id="LV.5" depart="18.90" departLane="entry_1" departPos="23.31" departSpeed="31.33" departDelay="0.20" arrival="184.40" arrivalLane="e0_0" arrivalPos="4800.00" arrivalSpeed="31.33" duration="165.50" routeLength="4976.69" waitingTime="0.00" waitingCount="0" stopTime="0.00" timeLoss="6.62" rerouteNo="0" devices="tripinfo_LV.5 routing_LV.5 ssm_LV.5" vType="vehLVOS158" speedFactor="0.87" vaporized=""/>
    <tripinfo id="LV.4" depart="18.00" departLane="entry_0" departPos="42.88" departSpeed="30.92" departDelay="0.20" arrival="186.20" arrivalLane="e0_0" arrivalPos="4800.00" arrivalSpeed="30.91" duration="168.20" routeLength="4957.12" waitingTime="0.00" waitingCount="0" stopTime="0.00" timeLoss="7.80" rerouteNo="0" devices="tripinfo_LV.4 routing_LV.4 ssm_LV.4" vType="vehLVOS409" speedFactor="0.86" vaporized=""/>
    <tripinfo id="CAVToC.11" depart="20.60" departLane="entry_1" departPos="3.15" departSpeed="31.83" departDelay="0.50" arrival="186.60" arrivalLane="e0_1" arrivalPos="4800.00" arrivalSpeed="35.36" duration="166.00" routeLength="4996.85" waitingTime="0.00" waitingCount="0" stopTime="0.00" timeLoss="24.64" rerouteNo="0" devices="tripinfo_CAVToC.11 routing_CAVToC.11 ssm_CAVToC.11 toc_CAVToC.11 driverstateCAVToC.11" vType="vehLVOS748" speedFactor="0.98" vaporized=""/>
    <tripinfo id="CVToC.8" depart="23.30" departLane="entry_1" departPos="8.37" departSpeed="32.25" departDelay="3.70" arrival="188.00" arrivalLane="e0_1" arrivalPos="4800.00" arrivalSpeed="35.87" duration="164.70" routeLength="4991.63" waitingTime="0.00" waitingCount="0" stopTime="0.00" timeLoss="25.96" rerouteNo="0" devices="tripinfo_CVToC.8 routing_CVToC.8 ssm_CVToC.8 toc_CVToC.8 driverstateCVToC.8" vType="vehLVOS3" speedFactor="1.00" vaporized=""/>
    <tripinfo id="CAVToC.10" depart="21.80" departLane="entry_0" departPos="1.78" departSpeed="31.98" departDelay="3.10" arrival="188.60" arrivalLane="e0_0" arrivalPos="4800.00" arrivalSpeed="36.17" duration="166.80" routeLength="4998.22" waitingTime="0.00" waitingCount="0" stopTime="0.00" timeLoss="40.82" rerouteNo="0" devices="tripinfo_CAVToC.10 routing_CAVToC.10 ssm_CAVToC.10 toc_CAVToC.10 driverstateCAVToC.10" vType="vehLVOS487" speedFactor="1.10" vaporized=""/>
    <tripinfo id="CAVToC.13" depart="23.90" departLane="entry_0" departPos="0.19" departSpeed="31.93" departDelay="3.20" arrival="189.50" arrivalLane="e0_1" arrivalPos="4800.00" arrivalSpeed="33.06" duration="165.60" routeLength="4999.81" waitingTime="0.00" waitingCount="0" stopTime="0.00" timeLoss="14.46" rerouteNo="0" devices="tripinfo_CAVToC.13 routing_CAVToC.13 ssm_CAVToC.13 toc_CAVToC.13 driverstateCAVToC.13" vType="vehLVOS308" speedFactor="0.92" vaporized=""/>
    <tripinfo id="CAVToC.12" depart="25.60" departLane="entry_1" departPos="1.01" departSpeed="32.89" departDelay="5.00" arrival="190.50" arrivalLane="e0_1" arrivalPos="4800.00" arrivalSpeed="34.20" duration="164.90" routeLength="4998.99" waitingTime="0.00" waitingCount="0" stopTime="0.00" timeLoss="36.56" rerouteNo="0" devices="tripinfo_CAVToC.12 routing_CAVToC.12 ssm_CAVToC.12 toc_CAVToC.12 driverstateCAVToC.12" vType="vehLVOS866" speedFactor="1.08" vaporized=""/>
    <tripinfo id="CVToC.10" depart="27.80" departLane="entry_1" departPos="3.73" departSpeed="32.81" departDelay="1.60" arrival="193.60" arrivalLane="e0_0" arrivalPos="4800.00" arrivalSpeed="33.14" duration="165.80" routeLength="4996.27" waitingTime="0.00" waitingCount="0" stopTime="0.00" timeLoss="15.50" rerouteNo="0" devices="tripinfo_CVToC.10 routing_CVToC.10 ssm_CVToC.10 toc_CVToC.10 driverstateCVToC.10" vType="vehLVOS880" speedFactor="0.92" vaporized=""/>
    <tripinfo id="CVToC.11" depart="30.60" departLane="entry_1" departPos="21.84" departSpeed="32.46" departDelay="0.20" arrival="197.20" arrivalLane="e0_0" arrivalPos="4800.00" arrivalSpeed="32.79" duration="166.60" routeLength="4978.16" waitingTime="0.00" waitingCount="0" stopTime="0.00" timeLoss="15.13" rerouteNo="0" devices="tripinfo_CVToC.11 routing_CVToC.11 ssm_CVToC.11 toc_CVToC.11 driverstateCVToC.11" vType="vehLVOS899" speedFactor="0.91" vaporized=""/>
    <tripinfo id="CAVToC.16" depart="33.20" departLane="entry_1" departPos="18.54" departSpeed="32.93" departDelay="3.20" arrival="197.90" arrivalLane="e0_1" arrivalPos="4800.00" arrivalSpeed="35.51" duration="164.70" routeLength="4981.46" waitingTime="0.00" waitingCount="0" stopTime="0.00" timeLoss="43.85" rerouteNo="0" devices="tripinfo_CAVToC.16 routing_CAVToC.16 ssm_CAVToC.16 toc_CAVToC.16 driverstateCAVToC.16" vType="vehLVOS420" speedFactor="1.14" vaporized=""/>
    <tripinfo id="CVToC.12" depart="35.80" departLane="entry_1" departPos="16.33" departSpeed="33.26" departDelay="2.40" arrival="199.30" arrivalLane="e0_1" arrivalPos="4800.00" arrivalSpeed="37.08" duration="163.50" routeLength="4983.67" waitingTime="0.00" waitingCount="0" stopTime="0.00" timeLoss="39.06" rerouteNo="0" devices="tripinfo_CVToC.12 routing_CVToC.12 ssm_CVToC.12 toc_CVToC.12 driverstateCVToC.12" vType="vehLVOS712" speedFactor="1.11" vaporized=""/>
    <tripinfo id="CAVToC.14" depart="26.30" departLane="entry_0" departPos="8.61" departSpeed="31.24" departDelay="4.20" arrival="199.80" arrivalLane="e0_0" arrivalPos="4800.00" arrivalSpeed="31.09" duration="173.50" routeLength="4991.39" waitingTime="0.00" waitingCount="0" stopTime="0.00" timeLoss="13.74" rerouteNo="0" devices="tripinfo_CAVToC.14 routing_CAVToC.14 ssm_CAVToC.14 toc_CAVToC.14 driverstateCAVToC.14" vType="vehLVOS681" speedFactor="0.87" vaporized=""/>
    <tripinfo id="CVToC.9" depart="28.70" departLane="entry_0" departPos="0.94" departSpeed="32.04" departDelay="5.10" arrival="201.40" arrivalLane="e0_0" arrivalPos="4800.00" arrivalSpeed="34.47" duration="172.70" routeLength="4999.06" waitingTime="0.00" waitingCount="0" stopTime="0.00" timeLoss="41.40" rerouteNo="0" devices="tripinfo_CVToC.9 routing_CVToC.9 ssm_CVToC.9 toc_CVToC.9 driverstateCVToC.9" vType="vehLVOS650" speedFactor="1.06" vaporized=""/>
    <tripinfo id="LV.8" depart="37.90" departLane="entry_1" departPos="8.45" departSpeed="32.76" departDelay="6.50" arrival="204.00" arrivalLane="e0_1" arrivalPos="4800.00" arrivalSpeed="32.76" duration="166.10" routeLength="4991.55" waitingTime="0.00" waitingCount="0" stopTime="0.00" timeLoss="13.71" rerouteNo="0" devices="tripinfo_LV.8 routing_LV.8 ssm_LV.8" vType="vehLVOS147" speedFactor="0.91" vaporized=""/>
    <tripinfo id="CAVToC.15" depart="31.40" departLane="entry_0" departPos="12.59" departSpeed="31.90" departDelay="2.50" arrival="204.10" arrivalLane="e0_0" arrivalPos="4800.00" arrivalSpeed="32.86" duration="172.70" routeLength="4987.41" waitingTime="0.00" waitingCount="0" stopTime="0.00" timeLoss="24.01" rerouteNo="0" devices="tripinfo_CAVToC.15 routing_CAVToC.15 ssm_CAVToC.15 toc_CAVToC.15 driverstateCAVToC.15" vType="vehLVOS849" speedFactor="0.93" vaporized=""/>
    <tripinfo id="LV.7" depart="34.50" departLane="entry_0" departPos="11.51" departSpeed="37.79" departDelay="4.10" arrival="205.20" arrivalLane="e0_0" arrivalPos="4800.00" arrivalSpeed="34.41" duration="170.70" routeLength="4988.49" waitingTime="0.00" waitingCount="0" stopTime="0.00" timeLoss="38.62" rerouteNo="0" devices="tripinfo_LV.7 routing_LV.7 ssm_LV.7" vType="vehLVOS989" speedFactor="1.05" vaporized=""/>
    <tripinfo id="LV.9" depart="38.30" departLane="entry_0" departPos="10.34" departSpeed="36.40" departDelay="5.40" arrival="205.30" arrivalLane="e0_1" arrivalPos="4800.00" arrivalSpeed="34.13" duration="167.00" routeLength="4989.66" waitingTime="0.00" waitingCount="0" stopTime="0.00" timeLoss="29.83" rerouteNo="0" devices="tripinfo_LV.9 routing_LV.9 ssm_LV.9" vType="vehLVOS15" speedFactor="1.01" vaporized=""/>
    <tripinfo id="LV.3" depart="37.90" departLane="entry_0" departPos="1.09" departSpeed="42.65" departDelay="26.40" arrival="206.60" arrivalLane="e0_1" arrivalPos="4800.00" arrivalSpeed="34.54" duration="168.70" routeLength="4998.91" waitingTime="0.00" waitingCount="0" stopTime="0.00" timeLoss="51.43" rerouteNo="0" devices="tripinfo_LV.3 routing_LV.3 ssm_LV.3" vType="vehLVOS906" speedFactor="1.18" vaporized=""/>
    <tripinfo id="CAVToC.18" depart="43.50" departLane="entry_1" departPos="21.66" departSpeed="33.71" departDelay="7.20" arrival="208.50" arrivalLane="e0_0" arrivalPos="4800.00" arrivalSpeed="36.28" duration="165.00" routeLength="4978.34" waitingTime="0.00" waitingCount="0" stopTime="0.00" timeLoss="38.95" rerouteNo="0" devices="tripinfo_CAVToC.18 routing_CAVToC.18 ssm_CAVToC.18 toc_CAVToC.18 driverstateCAVToC.18" vType="vehLVOS546" speedFactor="1.09" vaporized=""/>
    <tripinfo id="CAVToC.19" depart="40.30" departLane="entry_1" departPos="0.46" departSpeed="33.19" departDelay="2.50" arrival="209.90" arrivalLane="e0_1" arrivalPos="4800.00" arrivalSpeed="37.86" duration="169.60" routeLength="4999.54" waitingTime="0.00" waitingCount="0" stopTime="0.00" timeLoss="40.75" rerouteNo="0" devices="tripinfo_CAVToC.19 routing_CAVToC.19 ssm_CAVToC.19 toc_CAVToC.19 driverstateCAVToC.19" vType="vehLVOS752" speedFactor="1.08" vaporized=""/>
    <tripinfo id="CVToC.13" depart="43.30" departLane="entry_0" departPos="4.06" departSpeed="31.62" departDelay="4.00" arrival="211.00" arrivalLane="e0_1" arrivalPos="4800.00" arrivalSpeed="37.64" duration="167.70" routeLength="4995.94" waitingTime="0.00" waitingCount="0" stopTime="0.00" timeLoss="60.34" rerouteNo="0" devices="tripinfo_CVToC.13 routing_CVToC.13 ssm_CVToC.13 toc_CVToC.13 driverstateCVToC.13" vType="vehLVOS546" speedFactor="1.29" vaporized=""/>
    <tripinfo id="LV.11" depart="48.50" departLane="entry_0" departPos="8.67" departSpeed="40.29" departDelay="7.10" arrival="212.50" arrivalLane="e0_1" arrivalPos="4800.00" arrivalSpeed="38.81" duration="164.00" routeLength="4991.33" waitingTime="0.00" waitingCount="0" stopTime="0.00" timeLoss="40.12" rerouteNo="0" devices="tripinfo_LV.11 routing_LV.11 ssm_LV.11" vType="vehLVOS563" speedFactor="1.12" vaporized=""/>
    <tripinfo id="CAVToC.21" depart="51.40" departLane="entry_1" departPos="32.52" departSpeed="33.02" departDelay="5.60" arrival="214.20" arrivalLane="e0_1" arrivalPos="4800.00" arrivalSpeed="40.86" duration="162.80" routeLength="4967.48" waitingTime="0.00" waitingCount="0" stopTime="0.00" timeLoss="45.95" rerouteNo="0" devices="tripinfo_CAVToC.21 routing_CAVToC.21 ssm_CAVToC.21 toc_CAVToC.21 driverstateCAVToC.21" vType="vehLVOS983" speedFactor="1.18" vaporized=""/>
    <tripinfo id="CAVToC.22" depart="53.30" departLane="entry_1" departPos="13.30" departSpeed="32.53" departDelay="4.20" arrival="215.30" arrivalLane="e0_0" arrivalPos="4800.00" arrivalSpeed="38.16" duration="162.00" routeLength="4986.70" waitingTime="0.00" waitingCount="0" stopTime="0.00" timeLoss="31.41" rerouteNo="0" devices="tripinfo_CAVToC.22 routing_CAVToC.22 ssm_CAVToC.22 toc_CAVToC.22 driverstateCAVToC.22" vType="vehLVOS769" speedFactor="1.06" vaporized=""/>
    <tripinfo id="LV.13" depart="53.10" departLane="entry_0" departPos="6.17" departSpeed="41.54" departDelay="6.00" arrival="216.30" arrivalLane="e0_1" arrivalPos="4800.00" arrivalSpeed="41.50" duration="163.20" routeLength="4993.83" waitingTime="0.00" waitingCount="0" stopTime="0.00" timeLoss="42.95" rerouteNo="0" devices="tripinfo_LV.13 routing_LV.13 ssm_LV.13" vType="vehLVOS824" speedFactor="1.15" vaporized=""/>
    <tripinfo id="CAVToC.17" depart="40.00" departLane="entry_0" departPos="4.41" departSpeed="29.87" departDelay="4.80" arrival="217.10" arrivalLane="e0_0" arrivalPos="4800.00" arrivalSpeed="29.86" duration="177.10" routeLength="4995.59" waitingTime="0.00" waitingCount="0" stopTime="0.00" timeLoss="9.83" rerouteNo="0" devices="tripinfo_CAVToC.17 routing_CAVToC.17 ssm_CAVToC.17 toc_CAVToC.17 driverstateCAVToC.17" vType="vehLVOS351" speedFactor="0.83" vaporized=""/>
    <tripinfo id="CVToC.14" depart="45.40" departLane="entry_1" departPos="0.51" departSpeed="33.28" departDelay="3.60" arrival="219.00" arrivalLane="e0_0" arrivalPos="4800.00" arrivalSpeed="33.58" duration="173.60" routeLength="4999.49" waitingTime="0.00" waitingCount="0" stopTime="0.00" timeLoss="44.71" rerouteNo="0" devices="tripinfo_CVToC.14 routing_CVToC.14 ssm_CVToC.14 toc_CVToC.14 driverstateCVToC.14" vType="vehLVOS11" speedFactor="1.07" vaporized=""/>
    <tripinfo id="CAVToC.20" depart="49.00" departLane="entry_1" departPos="44.11" departSpeed="32.14" departDelay="3.80" arrival="219.90" arrivalLane="e0_0" arrivalPos="4800.00" arrivalSpeed="33.78" duration="170.90" routeLength="4955.89" waitingTime="0.00" waitingCount="0" stopTime="0.00" timeLoss="30.50" rerouteNo="0" devices="tripinfo_CAVToC.20 routing_CAVToC.20 ssm_CAVToC.20 toc_CAVToC.20 driverstateCAVToC.20" vType="vehLVOS867" speedFactor="0.98" vaporized=""/>
    <tripinfo id="LV.10" depart="58.20" departLane="entry_1" departPos="0.54" departSpeed="36.38" departDelay="22.90" arrival="221.50" arrivalLane="e0_1" arrivalPos="4800.00" arrivalSpeed="36.27" duration="163.30" routeLength="4999.46" waitingTime="0.00" waitingCount="0" stopTime="0.00" timeLoss="25.78" rerouteNo="0" devices="tripinfo_LV.10 routing_LV.10 ssm_LV.10" vType="vehLVOS886" speedFactor="1.01" vaporized=""/>
    <tripinfo id="LV.15" depart="60.20" departLane="entry_1" departPos="1.29" departSpeed="38.40" departDelay="0.00" arrival="222.30" arrivalLane="e0_1" arrivalPos="4800.00" arrivalSpeed="38.37" duration="162.10" routeLength="4998.71" waitingTime="0.00" waitingCount="0" stopTime="0.00" timeLoss="31.94" rerouteNo="0" devices="tripinfo_LV.15 routing_LV.15 ssm_LV.15" vType="vehLVOS876" speedFactor="1.06" vaporized=""/>
    <tripinfo id="CVToC.15" depart="56.60" departLane="entry_0" departPos="59.89" departSpeed="33.47" departDelay="4.30" arrival="223.00" arrivalLane="e0_0" arrivalPos="4800.00" arrivalSpeed="35.33" duration="166.40" routeLength="4940.11" waitingTime="0.00" waitingCount="0" stopTime="0.00" timeLoss="28.19" rerouteNo="0" devices="tripinfo_CVToC.15 routing_CVToC.15 ssm_CVToC.15 toc_CVToC.15 driverstateCVToC.15" vType="vehLVOS344" speedFactor="0.99" vaporized=""/>
    <tripinfo id="LV.6" depart="62.20" departLane="entry_1" departPos="1.35" departSpeed="40.57" departDelay="36.10" arrival="223.40" arrivalLane="e0_1" arrivalPos="4800.00" arrivalSpeed="39.38" duration="161.20" routeLength="4998.65" waitingTime="0.00" waitingCount="0" stopTime="0.00" timeLoss="37.90" rerouteNo="0" devices="tripinfo_LV.6 routing_LV.6 ssm_LV.6" vType="vehLVOS463" speedFactor="1.12" vaporized=""/>
    <tripinfo id="LV.14" depart="59.30" departLane="entry_0" departPos="16.26" departSpeed="41.19" departDelay="1.20" arrival="224.00" arrivalLane="e0_0" arrivalPos="4800.00" arrivalSpeed="37.34" duration="164.70" routeLength="4983.74" waitingTime="0.00" waitingCount="0" stopTime="0.00" timeLoss="43.67" rerouteNo="0" devices="tripinfo_LV.14 routing_LV.14 ssm_LV.14" vType="vehLVOS115" speedFactor="1.14" vaporized=""/>
    <tripinfo id="CVToC.16" depart="64.20" departLane="entry_1" departPos="2.42" departSpeed="36.34" departDelay="6.80" arrival="225.20" arrivalLane="e0_1" arrivalPos="4800.00" arrivalSpeed="36.97" duration="161.00" routeLength="4997.58" waitingTime="0.00" waitingCount="0" stopTime="0.00" timeLoss="25.86" rerouteNo="0" devices="tripinfo_CVToC.16 routing_CVToC.16 ssm_CVToC.16 toc_CVToC.16 driverstateCVToC.16" vType="vehLVOS686" speedFactor="1.02" vaporized=""/>
    <tripinfo id="CVToC.19" depart="66.60" departLane="entry_1" departPos="9.53" departSpeed="36.34" departDelay="3.80" arrival="226.20" arrivalLane="e0_1" arrivalPos="4800.00" arrivalSpeed="37.64" duration="159.60" routeLength="4990.47" waitingTime="0.00" waitingCount="0" stopTime="0.00" timeLoss="27.17" rerouteNo="0" devices="tripinfo_CVToC.19 routing_CVToC.19 ssm_CVToC.19 toc_CVToC.19 driverstateCVToC.19" vType="vehLVOS347" speedFactor="1.04" vaporized=""/>
    <tripinfo id="CAVToC.24" depart="68.50" departLane="entry_1" departPos="0.25" departSpeed="35.76" departDelay="0.40" arrival="228.80" arrivalLane="e0_0" arrivalPos="4800.00" arrivalSpeed="35.76" duration="160.30" routeLength="4999.75" waitingTime="0.00" waitingCount="0" stopTime="0.00" timeLoss="20.46" rerouteNo="0" devices="tripinfo_CAVToC.24 routing_CAVToC.24 ssm_CAVToC.24 toc_CAVToC.24 driverstateCAVToC.24" vType="vehLVOS419" speedFactor="0.99" vaporized=""/>
    <tripinfo id="CAVToC.23" depart="69.00" departLane="entry_0" departPos="6.78" departSpeed="30.45" departDelay="1.00" arrival="230.50" arrivalLane="e0_1" arrivalPos="4800.00" arrivalSpeed="41.37" duration="161.50" routeLength="4993.22" waitingTime="0.00" waitingCount="0" stopTime="0.00" timeLoss="40.80" rerouteNo="0" devices="tripinfo_CAVToC.23 routing_CAVToC.23 ssm_CAVToC.23 toc_CAVToC.23 driverstateCAVToC.23" vType="vehLVOS453" speedFactor="1.15" vaporized=""/>
    <tripinfo id="CVToC.17" depart="61.20" departLane="entry_0" departPos="19.44" departSpeed="31.75" departDelay="0.70" arrival="234.00" arrivalLane="e0_0" arrivalPos="4800.00" arrivalSpeed="31.72" duration="172.80" routeLength="4980.56" waitingTime="0.00" waitingCount="0" stopTime="0.00" timeLoss="15.85" rerouteNo="0" devices="tripinfo_CVToC.17 routing_CVToC.17 ssm_CVToC.17 toc_CVToC.17 driverstateCVToC.17" vType="vehLVOS313" speedFactor="0.88" vaporized=""/>
    <tripinfo id="LV.16" depart="61.90" departLane="entry_0" departPos="12.49" departSpeed="31.94" departDelay="1.20" arrival="234.90" arrivalLane="e0_0" arrivalPos="4800.00" arrivalSpeed="31.92" duration="173.00" routeLength="4987.51" waitingTime="0.00" waitingCount="0" stopTime="0.00" timeLoss="16.78" rerouteNo="0" devices="tripinfo_LV.16 routing_LV.16 ssm_LV.16" vType="vehLVOS116" speedFactor="0.88" vaporized=""/>
    <tripinfo id="CVToC.18" depart="63.90" departLane="entry_0" departPos="4.95" departSpeed="32.15" departDelay="2.70" arrival="235.00" arrivalLane="e0_1" arrivalPos="4800.00" arrivalSpeed="34.21" duration="171.10" routeLength="4995.05" waitingTime="0.00" waitingCount="0" stopTime="0.00" timeLoss="25.18" rerouteNo="0" devices="tripinfo_CVToC.18 routing_CVToC.18 ssm_CVToC.18 toc_CVToC.18 driverstateCVToC.18" vType="vehLVOS366" speedFactor="0.95" vaporized=""/>
    <tripinfo id="LV.17" depart="69.80" departLane="entry_1" departPos="39.14" departSpeed="32.26" departDelay="0.50" arrival="237.10" arrivalLane="e0_0" arrivalPos="4800.00" arrivalSpeed="32.26" duration="167.30" routeLength="4960.86" waitingTime="0.00" waitingCount="0" stopTime="0.00" timeLoss="13.47" rerouteNo="0" devices="tripinfo_LV.17 routing_LV.17 ssm_LV.17" vType="vehLVOS420" speedFactor="0.89" vaporized=""/>