<?xml version="1.0" encoding="UTF-8"?>

<!-- generated on Sat Jun 13 15:17:38 2020 by Eclipse SUMO Version v1_6_0+0553-a03471b
<configuration xmlns:xsi="http://www.w3.org/2001/XMLSchema-instance" xsi:noNamespaceSchemaLocation="http://sumo.dlr.de/xsd/sumoConfiguration.xsd">

    <input>
        <net-file value="scenario/UC5_1.net.xml"/>
        <route-files value="scenario/routes_trafficMix_0_trafficDemand_1_driverBehaviour_OS_seed_0.xml"/>
        <additional-files value="scenario/additionalsOutput_trafficMix_0_trafficDemand_1_driverBehaviour_OS_seed_0.xml,scenario/vTypesCAVToC_OS.add.xml,scenario/vTypesCVToC_OS.add.xml,scenario/vTypesLV_OS.add.xml,scenario/shapes.add.xml,scenario/view.add.xml"/>
    </input>

    <output>
        <tripinfo-output value="/home/noul_ar/workspace/tor-distribution/outputs/simulations/dnq_sample3015.zip_20200613-143151/tripinfo_7.xml"/>
    </output>

    <time>
        <step-length value="0.1"/>
    </time>

    <processing>
        <step-method.ballistic value="true"/>
        <ignore-route-errors value="true"/>
        <lanechange.duration value="2.5"/>
    </processing>

    <report>
        <no-step-log value="true"/>
    </report>

    <toc_device>
        <device.toc.ogNewTimeHeadway value="100"/>
        <device.toc.ogNewSpaceHeadway value="5"/>
        <device.toc.ogMaxDecel value="1"/>
        <device.toc.ogChangeRate value="1"/>
    </toc_device>

    <traci_server>
        <remote-port value="52207"/>
    </traci_server>

    <random_number>
        <seed value="1031"/>
    </random_number>

    <gui_only>
        <tracker-interval value="0.1"/>
    </gui_only>

</configuration>
-->

<tripinfos xmlns:xsi="http://www.w3.org/2001/XMLSchema-instance" xsi:noNamespaceSchemaLocation="http://sumo.dlr.de/xsd/tripinfo_file.xsd">
    <tripinfo id="CAVToC.0" depart="4.10" departLane="entry_1" departPos="199.90" departSpeed="36.35" departDelay="0.00" arrival="132.90" arrivalLane="e0_0" arrivalPos="4800.00" arrivalSpeed="37.37" duration="128.80" routeLength="4800.10" waitingTime="0.00" waitingCount="0" stopTime="0.00" timeLoss="0.27" rerouteNo="0" devices="tripinfo_CAVToC.0 routing_CAVToC.0 ssm_CAVToC.0 toc_CAVToC.0 driverstateCAVToC.0" vType="vehLVOS670" speedFactor="1.03" vaporized=""/>
    <tripinfo id="CAVToC.1" depart="5.90" departLane="entry_0" departPos="199.90" departSpeed="36.34" departDelay="0.00" arrival="134.10" arrivalLane="e0_1" arrivalPos="4800.00" arrivalSpeed="37.69" duration="128.20" routeLength="4800.10" waitingTime="0.00" waitingCount="0" stopTime="0.00" timeLoss="0.82" rerouteNo="0" devices="tripinfo_CAVToC.1 routing_CAVToC.1 ssm_CAVToC.1 toc_CAVToC.1 driverstateCAVToC.1" vType="vehLVOS926" speedFactor="1.04" vaporized=""/>
    <tripinfo id="LV.0" depart="0.00" departLane="entry_1" departPos="199.90" departSpeed="35.48" departDelay="0.00" arrival="135.40" arrivalLane="e0_0" arrivalPos="4800.00" arrivalSpeed="35.45" duration="135.40" routeLength="4800.10" waitingTime="0.00" waitingCount="0" stopTime="0.00" timeLoss="0.07" rerouteNo="0" devices="tripinfo_LV.0 routing_LV.0 ssm_LV.0" vType="vehLVOS721" speedFactor="0.98" vaporized=""/>
    <tripinfo id="CVToC.0" depart="1.40" departLane="entry_0" departPos="199.90" departSpeed="38.84" departDelay="0.00" arrival="135.90" arrivalLane="e0_1" arrivalPos="4800.00" arrivalSpeed="38.80" duration="134.50" routeLength="4800.10" waitingTime="0.00" waitingCount="0" stopTime="0.00" timeLoss="10.84" rerouteNo="0" devices="tripinfo_CVToC.0 routing_CVToC.0 ssm_CVToC.0 toc_CVToC.0 driverstateCVToC.0" vType="vehLVOS781" speedFactor="1.08" vaporized=""/>
    <tripinfo id="LV.2" depart="9.00" departLane="entry_1" departPos="29.08" departSpeed="38.69" departDelay="0.00" arrival="141.50" arrivalLane="e0_0" arrivalPos="4800.00" arrivalSpeed="38.52" duration="132.50" routeLength="4970.92" waitingTime="0.00" waitingCount="0" stopTime="0.00" timeLoss="3.97" rerouteNo="0" devices="tripinfo_LV.2 routing_LV.2 ssm_LV.2" vType="vehLVOS492" speedFactor="1.07" vaporized=""/>
    <tripinfo id="LV.1" depart="7.00" departLane="entry_0" departPos="73.86" departSpeed="33.65" departDelay="0.00" arrival="154.50" arrivalLane="e0_0" arrivalPos="4800.00" arrivalSpeed="33.64" duration="147.50" routeLength="4926.14" waitingTime="0.00" waitingCount="0" stopTime="0.00" timeLoss="1.04" rerouteNo="0" devices="tripinfo_LV.1 routing_LV.1 ssm_LV.1" vType="vehLVOS647" speedFactor="0.93" vaporized=""/>
    <tripinfo id="CAVToC.3" depart="12.40" departLane="entry_1" departPos="84.11" departSpeed="34.62" departDelay="0.00" arrival="157.10" arrivalLane="e0_1" arrivalPos="4800.00" arrivalSpeed="34.60" duration="144.70" routeLength="4915.89" waitingTime="0.00" waitingCount="0" stopTime="0.00" timeLoss="2.70" rerouteNo="0" devices="tripinfo_CAVToC.3 routing_CAVToC.3 ssm_CAVToC.3 toc_CAVToC.3 driverstateCAVToC.3" vType="vehLVOS934" speedFactor="0.96" vaporized=""/>
    <tripinfo id="CVToC.2" depart="13.00" departLane="entry_0" departPos="199.90" departSpeed="33.89" departDelay="0.00" arrival="157.60" arrivalLane="e0_0" arrivalPos="4800.00" arrivalSpeed="33.81" duration="144.60" routeLength="4800.10" waitingTime="0.00" waitingCount="0" stopTime="0.00" timeLoss="2.91" rerouteNo="0" devices="tripinfo_CVToC.2 routing_CVToC.2 ssm_CVToC.2 toc_CVToC.2 driverstateCVToC.2" vType="vehLVOS190" speedFactor="0.94" vaporized=""/>
    <tripinfo id="CAVToC.4" depart="13.80" departLane="entry_1" departPos="59.87" departSpeed="33.23" departDelay="0.00" arrival="165.30" arrivalLane="e0_0" arrivalPos="4800.00" arrivalSpeed="33.09" duration="151.50" routeLength="4940.13" waitingTime="0.00" waitingCount="0" stopTime="0.00" timeLoss="2.78" rerouteNo="0" devices="tripinfo_CAVToC.4 routing_CAVToC.4 ssm_CAVToC.4 toc_CAVToC.4 driverstateCAVToC.4" vType="vehLVOS192" speedFactor="0.92" vaporized=""/>
    <tripinfo id="CAVToC.5" depart="15.30" departLane="entry_1" departPos="41.62" departSpeed="33.34" departDelay="0.30" arrival="166.80" arrivalLane="e0_1" arrivalPos="4800.00" arrivalSpeed="33.17" duration="151.50" routeLength="4958.38" waitingTime="0.00" waitingCount="0" stopTime="0.00" timeLoss="2.80" rerouteNo="0" devices="tripinfo_CAVToC.5 routing_CAVToC.5 ssm_CAVToC.5 toc_CAVToC.5 driverstateCAVToC.5" vType="vehLVOS171" speedFactor="0.92" vaporized=""/>
    <tripinfo id="LV.4" depart="14.50" departLane="entry_0" departPos="37.14" departSpeed="35.74" departDelay="0.10" arrival="168.70" arrivalLane="e0_0" arrivalPos="4800.00" arrivalSpeed="35.64" duration="154.20" routeLength="4962.86" waitingTime="0.00" waitingCount="0" stopTime="0.00" timeLoss="15.35" rerouteNo="0" devices="tripinfo_LV.4 routing_LV.4 ssm_LV.4" vType="vehLVOS294" speedFactor="0.99" vaporized=""/>
    <tripinfo id="CVToC.6" depart="16.60" departLane="entry_1" departPos="2.74" departSpeed="33.82" departDelay="1.00" arrival="168.80" arrivalLane="e0_1" arrivalPos="4800.00" arrivalSpeed="37.45" duration="152.20" routeLength="4997.26" waitingTime="0.00" waitingCount="0" stopTime="0.00" timeLoss="18.99" rerouteNo="0" devices="tripinfo_CVToC.6 routing_CVToC.6 ssm_CVToC.6 toc_CVToC.6 driverstateCVToC.6" vType="vehLVOS404" speedFactor="1.04" vaporized=""/>
    <tripinfo id="CVToC.8" depart="19.20" departLane="entry_1" departPos="10.77" departSpeed="34.06" departDelay="0.40" arrival="170.10" arrivalLane="e0_0" arrivalPos="4800.00" arrivalSpeed="36.44" duration="150.90" routeLength="4989.23" waitingTime="0.00" waitingCount="0" stopTime="0.00" timeLoss="14.06" rerouteNo="0" devices="tripinfo_CVToC.8 routing_CVToC.8 ssm_CVToC.8 toc_CVToC.8 driverstateCVToC.8" vType="vehLVOS625" speedFactor="1.01" vaporized=""/>
    <tripinfo id="LV.3" depart="21.90" departLane="entry_1" departPos="1.00" departSpeed="38.54" departDelay="7.70" arrival="170.50" arrivalLane="e0_1" arrivalPos="4800.00" arrivalSpeed="38.47" duration="148.60" routeLength="4999.00" waitingTime="0.00" waitingCount="0" stopTime="0.00" timeLoss="18.89" rerouteNo="0" devices="tripinfo_LV.3 routing_LV.3 ssm_LV.3" vType="vehLVOS700" speedFactor="1.07" vaporized=""/>
    <tripinfo id="CVToC.9" depart="24.40" departLane="entry_1" departPos="13.74" departSpeed="36.70" departDelay="0.10" arrival="171.80" arrivalLane="e0_1" arrivalPos="4800.00" arrivalSpeed="39.52" duration="147.40" routeLength="4986.26" waitingTime="0.00" waitingCount="0" stopTime="0.00" timeLoss="24.69" rerouteNo="0" devices="tripinfo_CVToC.9 routing_CVToC.9 ssm_CVToC.9 toc_CVToC.9 driverstateCVToC.9" vType="vehLVOS774" speedFactor="1.13" vaporized=""/>
    <tripinfo id="CAVToC.8" depart="26.50" departLane="entry_1" departPos="17.29" departSpeed="33.44" departDelay="0.00" arrival="178.60" arrivalLane="e0_0" arrivalPos="4800.00" arrivalSpeed="33.43" duration="152.10" routeLength="4982.71" waitingTime="0.00" waitingCount="0" stopTime="0.00" timeLoss="3.07" rerouteNo="0" devices="tripinfo_CAVToC.8 routing_CAVToC.8 ssm_CAVToC.8 toc_CAVToC.8 driverstateCAVToC.8" vType="vehLVOS172" speedFactor="0.93" vaporized=""/>
    <tripinfo id="LV.5" depart="29.50" departLane="entry_1" departPos="83.14" departSpeed="34.05" departDelay="0.10" arrival="179.40" arrivalLane="e0_1" arrivalPos="4800.00" arrivalSpeed="33.95" duration="149.90" routeLength="4916.86" waitingTime="0.00" waitingCount="0" stopTime="0.00" timeLoss="5.49" rerouteNo="0" devices="tripinfo_LV.5 routing_LV.5 ssm_LV.5" vType="vehLVOS624" speedFactor="0.94" vaporized=""/>
    <tripinfo id="CAVToC.11" depart="30.60" departLane="entry_1" departPos="40.63" departSpeed="33.91" departDelay="0.30" arrival="180.60" arrivalLane="e0_1" arrivalPos="4800.00" arrivalSpeed="36.05" duration="150.00" routeLength="4959.37" waitingTime="0.00" waitingCount="0" stopTime="0.00" timeLoss="12.49" rerouteNo="0" devices="tripinfo_CAVToC.11 routing_CAVToC.11 ssm_CAVToC.11 toc_CAVToC.11 driverstateCAVToC.11" vType="vehLVOS401" speedFactor="1.00" vaporized=""/>
    <tripinfo id="CAVToC.9" depart="28.40" departLane="entry_0" departPos="77.99" departSpeed="32.41" departDelay="0.20" arrival="182.20" arrivalLane="e0_1" arrivalPos="4800.00" arrivalSpeed="37.26" duration="153.80" routeLength="4922.01" waitingTime="0.00" waitingCount="0" stopTime="0.00" timeLoss="36.45" rerouteNo="0" devices="tripinfo_CAVToC.9 routing_CAVToC.9 ssm_CAVToC.9 toc_CAVToC.9 driverstateCAVToC.9" vType="vehLVOS85" speedFactor="1.16" vaporized=""/>
    <tripinfo id="CVToC.10" depart="33.60" departLane="entry_0" departPos="75.58" departSpeed="31.18" departDelay="0.00" arrival="183.00" arrivalLane="e0_1" arrivalPos="4800.00" arrivalSpeed="37.51" duration="149.40" routeLength="4924.42" waitingTime="0.00" waitingCount="0" stopTime="0.00" timeLoss="28.07" rerouteNo="0" devices="tripinfo_CVToC.10 routing_CVToC.10 ssm_CVToC.10 toc_CVToC.10 driverstateCVToC.10" vType="vehLVOS216" speedFactor="1.12" vaporized=""/>
    <tripinfo id="CAVToC.2" depart="6.10" departLane="entry_1" departPos="199.90" departSpeed="27.15" departDelay="0.00" arrival="184.00" arrivalLane="e0_0" arrivalPos="4800.00" arrivalSpeed="26.90" duration="177.90" routeLength="4800.10" waitingTime="0.00" waitingCount="0" stopTime="0.00" timeLoss="1.01" rerouteNo="0" devices="tripinfo_CAVToC.2 routing_CAVToC.2 ssm_CAVToC.2 toc_CAVToC.2 driverstateCAVToC.2" vType="vehLVOS38" speedFactor="0.75" vaporized=""/>
    <tripinfo id="CVToC.1" depart="6.30" departLane="entry_0" departPos="135.48" departSpeed="36.36" departDelay="0.00" arrival="185.20" arrivalLane="e0_0" arrivalPos="4800.00" arrivalSpeed="28.56" duration="178.90" routeLength="4864.52" waitingTime="0.00" waitingCount="0" stopTime="0.00" timeLoss="46.43" rerouteNo="0" devices="tripinfo_CVToC.1 routing_CVToC.1 ssm_CVToC.1 toc_CVToC.1 driverstateCVToC.1" vType="vehLVOS882" speedFactor="1.02" vaporized=""/>
    <tripinfo id="CAVToC.10" depart="28.50" departLane="entry_0" departPos="2.95" departSpeed="32.94" departDelay="0.10" arrival="186.10" arrivalLane="e0_1" arrivalPos="4800.00" arrivalSpeed="36.67" duration="157.60" routeLength="4997.05" waitingTime="0.00" waitingCount="0" stopTime="0.00" timeLoss="21.35" rerouteNo="0" devices="tripinfo_CAVToC.10 routing_CAVToC.10 ssm_CAVToC.10 toc_CAVToC.10 driverstateCAVToC.10" vType="vehLVOS276" speedFactor="1.02" vaporized=""/>
    <tripinfo id="CVToC.3" depart="13.80" departLane="entry_0" departPos="147.66" departSpeed="33.63" departDelay="0.00" arrival="187.60" arrivalLane="e0_0" arrivalPos="4800.00" arrivalSpeed="30.59" duration="173.80" routeLength="4852.34" waitingTime="0.00" waitingCount="0" stopTime="0.00" timeLoss="45.07" rerouteNo="0" devices="tripinfo_CVToC.3 routing_CVToC.3 ssm_CVToC.3 toc_CVToC.3 driverstateCVToC.3" vType="vehLVOS30" speedFactor="1.04" vaporized=""/>
    <tripinfo id="CAVToC.7" depart="23.40" departLane="entry_0" departPos="14.27" departSpeed="31.73" departDelay="0.10" arrival="188.00" arrivalLane="e0_1" arrivalPos="4800.00" arrivalSpeed="36.09" duration="164.60" routeLength="4985.73" waitingTime="0.00" waitingCount="0" stopTime="0.00" timeLoss="26.88" rerouteNo="0" devices="tripinfo_CAVToC.7 routing_CAVToC.7 ssm_CAVToC.7 toc_CAVToC.7 driverstateCAVToC.7" vType="vehLVOS225" speedFactor="1.00" vaporized=""/>
    <tripinfo id="CVToC.4" depart="14.10" departLane="entry_0" departPos="82.84" departSpeed="33.74" departDelay="0.10" arrival="188.50" arrivalLane="e0_0" arrivalPos="4800.00" arrivalSpeed="31.89" duration="174.40" routeLength="4917.16" waitingTime="0.00" waitingCount="0" stopTime="0.00" timeLoss="29.11" rerouteNo="0" devices="tripinfo_CVToC.4 routing_CVToC.4 ssm_CVToC.4 toc_CVToC.4 driverstateCVToC.4" vType="vehLVOS721" speedFactor="0.94" vaporized=""/>
    <tripinfo id="CVToC.5" depart="16.20" departLane="entry_0" departPos="7.34" departSpeed="34.24" departDelay="1.00" arrival="190.20" arrivalLane="e0_0" arrivalPos="4800.00" arrivalSpeed="31.74" duration="174.00" routeLength="4992.66" waitingTime="0.00" waitingCount="0" stopTime="0.00" timeLoss="56.81" rerouteNo="0" devices="tripinfo_CVToC.5 routing_CVToC.5 ssm_CVToC.5 toc_CVToC.5 driverstateCVToC.5" vType="vehLVOS423" speedFactor="1.18" vaporized=""/>
    <tripinfo id="CAVToC.6" depart="22.80" departLane="entry_0" departPos="75.02" departSpeed="31.10" departDelay="0.20" arrival="190.80" arrivalLane="e0_1" arrivalPos="4800.00" arrivalSpeed="31.10" duration="168.00" routeLength="4924.98" waitingTime="0.00" waitingCount="0" stopTime="0.00" timeLoss="9.60" rerouteNo="0" devices="tripinfo_CAVToC.6 routing_CAVToC.6 ssm_CAVToC.6 toc_CAVToC.6 driverstateCAVToC.6" vType="vehLVOS945" speedFactor="0.86" vaporized=""/>
    <tripinfo id="CVToC.7" depart="19.00" departLane="entry_0" departPos="17.73" departSpeed="33.00" departDelay="1.50" arrival="192.60" arrivalLane="e0_0" arrivalPos="4800.00" arrivalSpeed="32.88" duration="173.60" routeLength="4982.27" waitingTime="0.00" waitingCount="0" stopTime="0.00" timeLoss="43.77" rerouteNo="0" devices="tripinfo_CVToC.7 routing_CVToC.7 ssm_CVToC.7 toc_CVToC.7 driverstateCVToC.7" vType="vehLVOS50" speedFactor="1.06" vaporized=""/>
    <tripinfo id="CAVToC.12" depart="33.30" departLane="entry_1" departPos="68.05" departSpeed="30.21" departDelay="0.00" arrival="196.80" arrivalLane="e0_0" arrivalPos="4800.00" arrivalSpeed="30.13" duration="163.50" routeLength="4931.95" waitingTime="0.00" waitingCount="0" stopTime="0.00" timeLoss="0.17" rerouteNo="0" devices="tripinfo_CAVToC.12 routing_CAVToC.12 ssm_CAVToC.12 toc_CAVToC.12 driverstateCAVToC.12" vType="vehLVOS234" speedFactor="0.84" vaporized=""/>
    <tripinfo id="LV.6" depart="36.80" departLane="entry_1" departPos="4.81" departSpeed="31.07" departDelay="2.30" arrival="201.60" arrivalLane="e0_0" arrivalPos="4800.00" arrivalSpeed="31.06" duration="164.80" routeLength="4995.19" waitingTime="0.00" waitingCount="0" stopTime="0.00" timeLoss="3.99" rerouteNo="0" devices="tripinfo_LV.6 routing_LV.6 ssm_LV.6" vType="vehLVOS428" speedFactor="0.86" vaporized=""/>
    <tripinfo id="CAVToC.14" depart="39.00" departLane="entry_1" departPos="5.43" departSpeed="30.80" departDelay="1.20" arrival="204.20" arrivalLane="e0_0" arrivalPos="4800.00" arrivalSpeed="31.17" duration="165.20" routeLength="4994.57" waitingTime="0.00" waitingCount="0" stopTime="0.00" timeLoss="5.19" rerouteNo="0" devices="tripinfo_CAVToC.14 routing_CAVToC.14 ssm_CAVToC.14 toc_CAVToC.14 driverstateCAVToC.14" vType="vehLVOS286" speedFactor="0.86" vaporized=""/>
    <tripinfo id="LV.7" depart="44.30" departLane="entry_1" departPos="5.11" departSpeed="40.24" departDelay="4.20" arrival="206.20" arrivalLane="e0_1" arrivalPos="4800.00" arrivalSpeed="34.00" duration="161.90" routeLength="4994.89" waitingTime="0.00" waitingCount="0" stopTime="0.00" timeLoss="37.74" rerouteNo="0" devices="tripinfo_LV.7 routing_LV.7 ssm_LV.7" vType="vehLVOS316" speedFactor="1.11" vaporized=""/>
    <tripinfo id="LV.8" depart="47.70" departLane="entry_1" departPos="1.80" departSpeed="40.88" departDelay="3.40" arrival="208.20" arrivalLane="e0_1" arrivalPos="4800.00" arrivalSpeed="35.84" duration="160.50" routeLength="4998.20" waitingTime="0.00" waitingCount="0" stopTime="0.00" timeLoss="38.23" rerouteNo="0" devices="tripinfo_LV.8 routing_LV.8 ssm_LV.8" vType="vehLVOS619" speedFactor="1.13" vaporized=""/>
    <tripinfo id="CAVToC.13" depart="34.10" departLane="entry_1" departPos="28.15" departSpeed="28.65" departDelay="0.00" arrival="208.30" arrivalLane="e0_0" arrivalPos="4800.00" arrivalSpeed="28.56" duration="174.20" routeLength="4971.85" waitingTime="0.00" waitingCount="0" stopTime="0.00" timeLoss="0.66" rerouteNo="0" devices="tripinfo_CAVToC.13 routing_CAVToC.13 ssm_CAVToC.13 toc_CAVToC.13 driverstateCAVToC.13" vType="vehLVOS893" speedFactor="0.79" vaporized=""/>
    <tripinfo id="CVToC.11" depart="34.60" departLane="entry_0" departPos="18.14" departSpeed="31.27" departDelay="0.10" arrival="209.40" arrivalLane="e0_0" arrivalPos="4800.00" arrivalSpeed="30.54" duration="174.80" routeLength="4981.86" waitingTime="0.00" waitingCount="0" stopTime="0.00" timeLoss="48.64" rerouteNo="0" devices="tripinfo_CVToC.11 routing_CVToC.11 ssm_CVToC.11 toc_CVToC.11 driverstateCVToC.11" vType="vehLVOS897" speedFactor="1.09" vaporized=""/>
    <tripinfo id="LV.9" depart="47.90" departLane="entry_1" departPos="2.38" departSpeed="34.02" departDelay="0.20" arrival="209.40" arrivalLane="e0_1" arrivalPos="4800.00" arrivalSpeed="33.90" duration="161.50" routeLength="4997.62" waitingTime="0.00" waitingCount="0" stopTime="0.00" timeLoss="14.58" rerouteNo="0" devices="tripinfo_LV.9 routing_LV.9 ssm_LV.9" vType="vehLVOS571" speedFactor="0.94" vaporized=""/>
    <tripinfo id="CVToC.12" depart="37.30" departLane="entry_0" departPos="21.19" departSpeed="26.87" departDelay="0.00" arrival="210.80" arrivalLane="e0_0" arrivalPos="4800.00" arrivalSpeed="32.58" duration="173.50" routeLength="4978.81" waitingTime="0.00" waitingCount="0" stopTime="0.00" timeLoss="31.72" rerouteNo="0" devices="tripinfo_CVToC.12 routing_CVToC.12 ssm_CVToC.12 toc_CVToC.12 driverstateCVToC.12" vType="vehLVOS353" speedFactor="0.97" vaporized=""/>
    <tripinfo id="CAVToC.15" depart="51.80" departLane="entry_1" departPos="44.52" departSpeed="34.69" departDelay="0.20" arrival="211.00" arrivalLane="e0_1" arrivalPos="4800.00" arrivalSpeed="38.03" duration="159.20" routeLength="4955.48" waitingTime="0.00" waitingCount="0" stopTime="0.00" timeLoss="36.51" rerouteNo="0" devices="tripinfo_CAVToC.15 routing_CAVToC.15 ssm_CAVToC.15 toc_CAVToC.15 driverstateCAVToC.15" vType="vehLVOS745" speedFactor="1.12" vaporized=""/>
    <tripinfo id="CVToC.13" depart="39.90" departLane="entry_0" departPos="8.76" departSpeed="27.95" departDelay="0.70" arrival="211.80" arrivalLane="e0_0" arrivalPos="4800.00" arrivalSpeed="32.26" duration="171.90" routeLength="4991.24" waitingTime="0.00" waitingCount="0" stopTime="0.00" timeLoss="41.15" rerouteNo="0" devices="tripinfo_CVToC.13 routing_CVToC.13 ssm_CVToC.13 toc_CVToC.13 driverstateCVToC.13" vType="vehLVOS624" speedFactor="1.06" vaporized=""/>
    <tripinfo id="CVToC.14" depart="46.60" departLane="entry_0" departPos="102.73" departSpeed="28.04" departDelay="0.00" arrival="214.30" arrivalLane="e0_0" arrivalPos="4800.00" arrivalSpeed="33.41" duration="167.70" routeLength="4897.27" waitingTime="0.00" waitingCount="0" stopTime="0.00" timeLoss="48.00" rerouteNo="0" devices="tripinfo_CVToC.14 routing_CVToC.14 ssm_CVToC.14 toc_CVToC.14 driverstateCVToC.14" vType="vehLVOS345" speedFactor="1.13" vaporized=""/>
    <tripinfo id="CVToC.16" depart="53.60" departLane="entry_1" departPos="29.51" departSpeed="34.78" departDelay="0.00" arrival="214.40" arrivalLane="e0_1" arrivalPos="4800.00" arrivalSpeed="35.24" duration="160.80" routeLength="4970.49" waitingTime="0.00" waitingCount="0" stopTime="0.00" timeLoss="19.82" rerouteNo="0" devices="tripinfo_CVToC.16 routing_CVToC.16 ssm_CVToC.16 toc_CVToC.16 driverstateCVToC.16" vType="vehLVOS615" speedFactor="0.98" vaporized=""/>
    <tripinfo id="CVToC.15" depart="48.10" departLane="entry_0" departPos="73.73" departSpeed="28.20" departDelay="0.10" arrival="215.40" arrivalLane="e0_0" arrivalPos="4800.00" arrivalSpeed="31.17" duration="167.30" routeLength="4926.27" waitingTime="0.00" waitingCount="0" stopTime="0.00" timeLoss="9.44" rerouteNo="0" devices="tripinfo_CVToC.15 routing_CVToC.15 ssm_CVToC.15 toc_CVToC.15 driverstateCVToC.15" vType="vehLVOS419" speedFactor="0.86" vaporized=""/>
    <tripinfo id="LV.12" depart="55.30" departLane="entry_1" departPos="4.56" departSpeed="39.65" departDelay="0.50" arrival="215.40" arrivalLane="e0_1" arrivalPos="4800.00" arrivalSpeed="36.64" duration="160.10" routeLength="4995.44" waitingTime="0.00" waitingCount="0" stopTime="0.00" timeLoss="34.10" rerouteNo="0" devices="tripinfo_LV.12 routing_LV.12 ssm_LV.12" vType="vehLVOS165" speedFactor="1.10" vaporized=""/>
    <tripinfo id="LV.10" depart="49.30" departLane="entry_0" departPos="33.92" departSpeed="32.37" departDelay="0.00" arrival="217.10" arrivalLane="e0_0" arrivalPos="4800.00" arrivalSpeed="32.28" duration="167.80" routeLength="4966.08" waitingTime="0.00" waitingCount="0" stopTime="0.00" timeLoss="14.34" rerouteNo="0" devices="tripinfo_LV.10 routing_LV.10 ssm_LV.10" vType="vehLVOS713" speedFactor="0.90" vaporized=""/>
    <tripinfo id="LV.13" depart="56.30" departLane="entry_1" departPos="36.38" departSpeed="33.19" departDelay="0.00" arrival="217.30" arrivalLane="e0_1" arrivalPos="4800.00" arrivalSpeed="33.19" duration="161.00" routeLength="4963.62" waitingTime="0.00" waitingCount="0" stopTime="0.00" timeLoss="11.37" rerouteNo="0" devices="tripinfo_LV.13 routing_LV.13 ssm_LV.13" vType="vehLVOS883" speedFactor="0.92" vaporized=""/>
    <tripinfo id="LV.11" depart="51.40" departLane="entry_0" departPos="16.36" departSpeed="35.07" departDelay="0.00" arrival="218.50" arrivalLane="e0_0" arrivalPos="4800.00" arrivalSpeed="34.74" duration="167.10" routeLength="4983.64" waitingTime="0.00" waitingCount="0" stopTime="0.00" timeLoss="24.97" rerouteNo="0" devices="tripinfo_LV.11 routing_LV.11 ssm_LV.11" vType="vehLVOS864" speedFactor="0.97" vaporized=""/>
    <tripinfo id="CVToC.17" depart="53.90" departLane="entry_0" departPos="30.52" departSpeed="33.98" departDelay="0.00" arrival="220.10" arrivalLane="e0_0" arrivalPos="4800.00" arrivalSpeed="34.35" duration="166.20" routeLength="4969.48" waitingTime="0.00" waitingCount="0" stopTime="0.00" timeLoss="21.60" rerouteNo="0" devices="tripinfo_CVToC.17 routing_CVToC.17 ssm_CVToC.17 toc_CVToC.17 driverstateCVToC.17" vType="vehLVOS52" speedFactor="0.95" vaporized=""/>
    <tripinfo id="CAVToC.16" depart="56.80" departLane="entry_0" departPos="42.44" departSpeed="34.38" departDelay="0.40" arrival="220.20" arrivalLane="e0_1" arrivalPos="4800.00" arrivalSpeed="38.98" duration="163.40" routeLength="4957.56" waitingTime="0.00" waitingCount="0" stopTime="0.00" timeLoss="40.07" rerouteNo="0" devices="tripinfo_CAVToC.16 routing_CAVToC.16 ssm_CAVToC.16 toc_CAVToC.16 driverstateCAVToC.16" vType="vehLVOS790" speedFactor="1.11" vaporized=""/>
    <tripinfo id="CAVToC.17" depart="58.40" departLane="entry_1" departPos="27.27" departSpeed="33.80" departDelay="0.00" arrival="221.60" arrivalLane="e0_1" arrivalPos="4800.00" arrivalSpeed="38.44" duration="163.20" routeLength="4972.73" waitingTime="0.00" waitingCount="0" stopTime="0.00" timeLoss="33.82" rerouteNo="0" devices="tripinfo_CAVToC.17 routing_CAVToC.17 ssm_CAVToC.17 toc_CAVToC.17 driverstateCAVToC.17" vType="vehLVOS533" speedFactor="1.06" vaporized=""/>
    <tripinfo id="CAVToC.18" depart="60.20" departLane="entry_1" departPos="21.83" departSpeed="30.21" departDelay="0.00" arrival="227.40" arrivalLane="e0_1" arrivalPos="4800.00" arrivalSpeed="30.16" duration="167.20" routeLength="4978.17" waitingTime="0.00" waitingCount="0" stopTime="0.00" timeLoss="2.40" rerouteNo="0" devices="tripinfo_CAVToC.18 routing_CAVToC.18 ssm_CAVToC.18 toc_CAVToC.18 driverstateCAVToC.18" vType="vehLVOS170" speedFactor="0.84" vaporized=""/>
    <tripinfo id="CVToC.18" depart="58.70" departLane="entry_0" departPos="17.63" departSpeed="34.16" departDelay="0.00" arrival="229.50" arrivalLane="e0_0" arrivalPos="4800.00" arrivalSpeed="32.80" duration="170.80" routeLength="4982.37" waitingTime="0.00" waitingCount="0" stopTime="0.00" timeLoss="51.65" rerouteNo="0" devices="tripinfo_CVToC.18 routing_CVToC.18 ssm_CVToC.18 toc_CVToC.18 driverstateCVToC.18" vType="vehLVOS1" speedFactor="1.16" vaporized=""/>
    <tripinfo id="CVToC.20" depart="61.80" departLane="entry_1" departPos="6.44" departSpeed="30.33" departDelay="0.60" arrival="230.70" arrivalLane="e0_1" arrivalPos="4800.00" arrivalSpeed="30.34" duration="168.90" routeLength="4993.56" waitingTime="0.00" waitingCount="0" stopTime="0.00" timeLoss="4.39" rerouteNo="0" devices="tripinfo_CVToC.20 routing_CVToC.20 ssm_CVToC.20 toc_CVToC.20 driverstateCVToC.20" vType="vehLVOS344" speedFactor="0.84" vaporized=""/>
    <tripinfo id="CVToC.21" depart="64.20" departLane="entry_1" departPos="3.84" departSpeed="30.68" departDelay="2.30" arrival="231.60" arrivalLane="e0_1" arrivalPos="4800.00" arrivalSpeed="31.70" duration="167.40" routeLength="4996.16" waitingTime="0.00" waitingCount="0" stopTime="0.00" timeLoss="18.16" rerouteNo="0" devices="tripinfo_CVToC.21 routing_CVToC.21 ssm_CVToC.21 toc_CVToC.21 driverstateCVToC.21" vType="vehLVOS97" speedFactor="0.93" vaporized=""/>
    <tripinfo id="CVToC.19" depart="60.60" departLane="entry_0" departPos="2.50" departSpeed="33.37" departDelay="0.30" arrival="231.90" arrivalLane="e0_0" arrivalPos="4800.00" arrivalSpeed="32.46" duration="171.30" routeLength="4997.50" waitingTime="0.00" waitingCount="0" stopTime="0.00" timeLoss="35.62" rerouteNo="0" devices="tripinfo_CVToC.19 routing_CVToC.19 ssm_CVToC.19 toc_CVToC.19 driverstateCVToC.19" vType="vehLVOS163" speedFactor="1.02" vaporized=""/>
    <tripinfo id="LV.14" depart="66.20" departLane="entry_1" departPos="1.21" departSpeed="33.30" departDelay="4.20" arrival="232.90" arrivalLane="e0_1" arrivalPos="4800.00" arrivalSpeed="33.09" duration="166.70" routeLength="4998.79" waitingTime="0.00" waitingCount="0" stopTime="0.00" timeLoss="16.58" rerouteNo="0" devices="tripinfo_LV.14 routing_LV.14 ssm_LV.14" vType="vehLVOS909" speedFactor="0.92" vaporized=""/>
    <tripinfo id="CAVToC.20" depart="68.70" departLane="entry_1" departPos="5.97" departSpeed="33.11" departDelay="2.70" arrival="233.80" arrivalLane="e0_1" arrivalPos="4800.00" arrivalSpeed="34.43" duration="165.10" routeLength="4994.03" waitingTime="0.00" waitingCount="0" stopTime="0.00" timeLoss="23.63" rerouteNo="0" devices="tripinfo_CAVToC.20 routing_CAVToC.20 ssm_CAVToC.20 toc_CAVToC.20 driverstateCAVToC.20" vType="vehLVOS422" speedFactor="0.98" vaporized=""/>
    <tripinfo id="CVToC.22" depart="62.90" departLane="entry_0" departPos="6.35" departSpeed="30.46" departDelay="0.60" arrival="234.40" arrivalLane="e0_0" arrivalPos="4800.00" arrivalSpeed="31.61" duration="171.50" routeLength="4993.65" waitingTime="0.00" waitingCount="0" stopTime="0.00" timeLoss="13.74" rerouteNo="0" devices="tripinfo_CVToC.22 routing_CVToC.22 ssm_CVToC.22 toc_CVToC.22 driverstateCVToC.22" vType="vehLVOS914" speedFactor="0.88" vaporized=""/>
    <tripinfo id="CVToC.25" depart="71.40" departLane="entry_1" departPos="7.48" departSpeed="33.47" departDelay="2.80" arrival="234.70" arrivalLane="e0_1" arrivalPos="4800.00" arrivalSpeed="34.57" duration="163.30" routeLength="4992.52" waitingTime="0.00" waitingCount="0" stopTime="0.00" timeLoss="36.31" rerouteNo="0" devices="tripinfo_CVToC.25 routing_CVToC.25 ssm_CVToC.25 toc_CVToC.25 driverstateCVToC.25" vType="vehLVOS530" speedFactor="1.09" vaporized=""/>
    <tripinfo id="CVToC.23" depart="65.30" departLane="entry_0" departPos="2.97" departSpeed="28.98" departDelay="2.90" arrival="235.80" arrivalLane="e0_0" arrivalPos="4800.00" arrivalSpeed="33.22" duration="170.50" routeLength="4997.03" waitingTime="0.00" waitingCount="0" stopTime="0.00" timeLoss="25.85" rerouteNo="0" devices="tripinfo_CVToC.23 routing_CVToC.23 ssm_CVToC.23 toc_CVToC.23 driverstateCVToC.23" vType="vehLVOS803" speedFactor="0.96" vaporized=""/>
    <tripinfo id="CVToC.26" depart="73.80" departLane="entry_1" departPos="3.81" departSpeed="33.79" departDelay="4.50" arrival="237.90" arrivalLane="e0_1" arrivalPos="4800.00" arrivalSpeed="35.87" duration="164.10" routeLength="4996.19" waitingTime="0.00" waitingCount="0" stopTime="0.00" timeLoss="35.63" rerouteNo="0" devices="tripinfo_CVToC.26 routing_CVToC.26 ssm_CVToC.26 toc_CVToC.26 driverstateCVToC.26" vType="vehLVOS606" speedFactor="1.08" vaporized=""/>
    <tripinfo id="CAVToC.19" depart="67.70" departLane="entry_0" departPos="7.54" departSpeed="28.57" departDelay="3.80" arrival="238.20" arrivalLane="e0_0" arrivalPos="4800.00" arrivalSpeed="30.81" duration="170.50" routeLength="4992.46" waitingTime="0.00" waitingCount="0" stopTime="0.00" timeLoss="8.72" rerouteNo="0" devices="tripinfo_CAVToC.19 routing_CAVToC.19 ssm_CAVToC.19 toc_CAVToC.19 driverstateCAVToC.19" vType="vehLVOS973" speedFactor="0.85" vaporized=""/>