<?xml version="1.0" encoding="UTF-8"?>

<!-- generated on Thu Aug 27 10:11:41 2020 by Eclipse SUMO sumo Version v1_6_0+1341-81c8bfe906
<configuration xmlns:xsi="http://www.w3.org/2001/XMLSchema-instance" xsi:noNamespaceSchemaLocation="http://sumo.dlr.de/xsd/sumoConfiguration.xsd">

    <input>
        <net-file value="scenario/UC5_1.net.xml"/>
        <route-files value="scenario/routes_trafficMix_0_trafficDemand_1_driverBehaviour_OS_seed_0.xml"/>
        <additional-files value="scenario/additionalsOutput_trafficMix_0_trafficDemand_1_driverBehaviour_OS_seed_0.xml,scenario/vTypesCAVToC_OS.add.xml,scenario/vTypesCVToC_OS.add.xml,scenario/vTypesLV_OS.add.xml,scenario/shapes.add.xml,scenario/view.add.xml"/>
    </input>

    <output>
        <tripinfo-output value="/home/anoulis/workspace/tor-distribution/outputs/simulations/DQN__2020-08-26_22-11-43__20200827-094847/tripinfo_4.xml"/>
    </output>

    <time>
        <step-length value="0.1"/>
    </time>

    <processing>
        <step-method.ballistic value="true"/>
        <ignore-route-errors value="true"/>
        <lanechange.duration value="2.5"/>
    </processing>

    <report>
        <no-step-log value="true"/>
    </report>

    <toc_device>
        <device.toc.ogNewTimeHeadway value="100"/>
        <device.toc.ogNewSpaceHeadway value="5"/>
        <device.toc.ogMaxDecel value="1"/>
        <device.toc.ogChangeRate value="1"/>
    </toc_device>

    <traci_server>
        <remote-port value="44315"/>
    </traci_server>

    <random_number>
        <seed value="1028"/>
    </random_number>

    <gui_only>
        <tracker-interval value="0.1"/>
    </gui_only>

</configuration>
-->

<tripinfos xmlns:xsi="http://www.w3.org/2001/XMLSchema-instance" xsi:noNamespaceSchemaLocation="http://sumo.dlr.de/xsd/tripinfo_file.xsd">
    <tripinfo id="CAVToC.0" depart="0.20" departLane="entry_1" departPos="199.90" departSpeed="28.35" departDelay="0.00" arrival="169.70" arrivalLane="e0_1" arrivalPos="4800.00" arrivalSpeed="28.32" duration="169.50" routeLength="4800.10" waitingTime="0.00" waitingCount="0" stopTime="0.00" timeLoss="0.15" rerouteNo="0" devices="tripinfo_CAVToC.0 routing_CAVToC.0 ssm_CAVToC.0 toc_CAVToC.0 driverstateCAVToC.0" vType="vehLVOS604" speedFactor="0.79" vaporized=""/>
    <tripinfo id="CVToC.0" depart="2.30" departLane="entry_1" departPos="182.66" departSpeed="29.18" departDelay="0.00" arrival="171.20" arrivalLane="e0_1" arrivalPos="4800.00" arrivalSpeed="31.68" duration="168.90" routeLength="4817.34" waitingTime="0.00" waitingCount="0" stopTime="0.00" timeLoss="33.75" rerouteNo="0" devices="tripinfo_CVToC.0 routing_CVToC.0 ssm_CVToC.0 toc_CVToC.0 driverstateCVToC.0" vType="vehLVOS424" speedFactor="0.99" vaporized=""/>
    <tripinfo id="CAVToC.1" depart="3.30" departLane="entry_0" departPos="199.90" departSpeed="35.90" departDelay="0.00" arrival="171.40" arrivalLane="e0_0" arrivalPos="4800.00" arrivalSpeed="31.00" duration="168.10" routeLength="4800.10" waitingTime="0.00" waitingCount="0" stopTime="0.00" timeLoss="34.37" rerouteNo="0" devices="tripinfo_CAVToC.1 routing_CAVToC.1 ssm_CAVToC.1 toc_CAVToC.1 driverstateCAVToC.1" vType="vehLVOS753" speedFactor="0.99" vaporized=""/>
    <tripinfo id="CVToC.2" depart="4.10" departLane="entry_0" departPos="165.29" departSpeed="30.10" departDelay="0.00" arrival="173.20" arrivalLane="e0_0" arrivalPos="4800.00" arrivalSpeed="30.07" duration="169.10" routeLength="4834.71" waitingTime="0.00" waitingCount="0" stopTime="0.00" timeLoss="8.48" rerouteNo="0" devices="tripinfo_CVToC.2 routing_CVToC.2 ssm_CVToC.2 toc_CVToC.2 driverstateCVToC.2" vType="vehLVOS819" speedFactor="0.83" vaporized=""/>
    <tripinfo id="CVToC.1" depart="3.00" departLane="entry_1" departPos="127.75" departSpeed="29.79" departDelay="0.00" arrival="173.40" arrivalLane="e0_1" arrivalPos="4800.00" arrivalSpeed="34.45" duration="170.40" routeLength="4872.25" waitingTime="0.00" waitingCount="0" stopTime="0.00" timeLoss="30.22" rerouteNo="0" devices="tripinfo_CVToC.1 routing_CVToC.1 ssm_CVToC.1 toc_CVToC.1 driverstateCVToC.1" vType="vehLVOS230" speedFactor="0.96" vaporized=""/>
    <tripinfo id="CAVToC.2" depart="3.40" departLane="entry_1" departPos="75.20" departSpeed="29.93" departDelay="0.00" arrival="175.10" arrivalLane="e0_1" arrivalPos="4800.00" arrivalSpeed="30.49" duration="171.70" routeLength="4924.80" waitingTime="0.00" waitingCount="0" stopTime="0.00" timeLoss="10.20" rerouteNo="0" devices="tripinfo_CAVToC.2 routing_CAVToC.2 ssm_CAVToC.2 toc_CAVToC.2 driverstateCAVToC.2" vType="vehLVOS461" speedFactor="0.84" vaporized=""/>
    <tripinfo id="CVToC.3" depart="4.50" departLane="entry_0" departPos="104.47" departSpeed="30.70" departDelay="0.00" arrival="176.20" arrivalLane="e0_0" arrivalPos="4800.00" arrivalSpeed="32.19" duration="171.70" routeLength="4895.53" waitingTime="0.00" waitingCount="0" stopTime="0.00" timeLoss="32.67" rerouteNo="0" devices="tripinfo_CVToC.3 routing_CVToC.3 ssm_CVToC.3 toc_CVToC.3 driverstateCVToC.3" vType="vehLVOS162" speedFactor="0.98" vaporized=""/>
    <tripinfo id="LV.1" depart="5.90" departLane="entry_1" departPos="36.98" departSpeed="37.34" departDelay="0.00" arrival="176.40" arrivalLane="e0_1" arrivalPos="4800.00" arrivalSpeed="33.52" duration="170.50" routeLength="4963.02" waitingTime="0.00" waitingCount="0" stopTime="0.00" timeLoss="37.55" rerouteNo="0" devices="tripinfo_LV.1 routing_LV.1 ssm_LV.1" vType="vehLVOS936" speedFactor="1.03" vaporized=""/>
    <tripinfo id="LV.0" depart="5.70" departLane="entry_0" departPos="78.08" departSpeed="35.18" departDelay="0.00" arrival="177.10" arrivalLane="e0_0" arrivalPos="4800.00" arrivalSpeed="33.05" duration="171.40" routeLength="4921.92" waitingTime="0.00" waitingCount="0" stopTime="0.00" timeLoss="31.45" rerouteNo="0" devices="tripinfo_LV.0 routing_LV.0 ssm_LV.0" vType="vehLVOS40" speedFactor="0.97" vaporized=""/>
    <tripinfo id="CVToC.5" depart="7.60" departLane="entry_1" departPos="36.38" departSpeed="29.24" departDelay="0.00" arrival="178.20" arrivalLane="e0_1" arrivalPos="4800.00" arrivalSpeed="29.23" duration="170.60" routeLength="4963.62" waitingTime="0.00" waitingCount="0" stopTime="0.00" timeLoss="0.77" rerouteNo="0" devices="tripinfo_CVToC.5 routing_CVToC.5 ssm_CVToC.5 toc_CVToC.5 driverstateCVToC.5" vType="vehLVOS424" speedFactor="0.81" vaporized=""/>
    <tripinfo id="CVToC.4" depart="6.80" departLane="entry_0" departPos="44.40" departSpeed="34.75" departDelay="0.20" arrival="180.20" arrivalLane="e0_0" arrivalPos="4800.00" arrivalSpeed="32.14" duration="173.40" routeLength="4955.60" waitingTime="0.00" waitingCount="0" stopTime="0.00" timeLoss="30.88" rerouteNo="0" devices="tripinfo_CVToC.4 routing_CVToC.4 ssm_CVToC.4 toc_CVToC.4 driverstateCVToC.4" vType="vehLVOS821" speedFactor="0.96" vaporized=""/>
    <tripinfo id="CAVToC.3" depart="9.30" departLane="entry_1" departPos="3.35" departSpeed="30.14" departDelay="1.20" arrival="181.60" arrivalLane="e0_1" arrivalPos="4800.00" arrivalSpeed="34.52" duration="172.30" routeLength="4996.65" waitingTime="0.00" waitingCount="0" stopTime="0.00" timeLoss="36.87" rerouteNo="0" devices="tripinfo_CAVToC.3 routing_CAVToC.3 ssm_CAVToC.3 toc_CAVToC.3 driverstateCAVToC.3" vType="vehLVOS832" speedFactor="1.02" vaporized=""/>
    <tripinfo id="CAVToC.4" depart="12.10" departLane="entry_1" departPos="8.36" departSpeed="30.62" departDelay="3.00" arrival="183.40" arrivalLane="e0_1" arrivalPos="4800.00" arrivalSpeed="35.02" duration="171.30" routeLength="4991.64" waitingTime="0.00" waitingCount="0" stopTime="0.00" timeLoss="29.00" rerouteNo="0" devices="tripinfo_CAVToC.4 routing_CAVToC.4 ssm_CAVToC.4 toc_CAVToC.4 driverstateCAVToC.4" vType="vehLVOS225" speedFactor="0.97" vaporized=""/>
    <tripinfo id="LV.2" depart="14.00" departLane="entry_1" departPos="1.27" departSpeed="34.54" departDelay="1.40" arrival="184.50" arrivalLane="e0_1" arrivalPos="4800.00" arrivalSpeed="34.50" duration="170.50" routeLength="4998.73" waitingTime="0.00" waitingCount="0" stopTime="0.00" timeLoss="25.69" rerouteNo="0" devices="tripinfo_LV.2 routing_LV.2 ssm_LV.2" vType="vehLVOS870" speedFactor="0.96" vaporized=""/>
    <tripinfo id="CVToC.6" depart="8.10" departLane="entry_0" departPos="1.41" departSpeed="34.99" departDelay="0.20" arrival="184.70" arrivalLane="e0_0" arrivalPos="4800.00" arrivalSpeed="32.09" duration="176.60" routeLength="4998.59" waitingTime="0.00" waitingCount="0" stopTime="0.00" timeLoss="54.84" rerouteNo="0" devices="tripinfo_CVToC.6 routing_CVToC.6 ssm_CVToC.6 toc_CVToC.6 driverstateCVToC.6" vType="vehLVOS879" speedFactor="1.14" vaporized=""/>
    <tripinfo id="CVToC.8" depart="10.70" departLane="entry_0" departPos="3.17" departSpeed="29.37" departDelay="1.10" arrival="185.70" arrivalLane="e0_0" arrivalPos="4800.00" arrivalSpeed="33.40" duration="175.00" routeLength="4996.83" waitingTime="0.00" waitingCount="0" stopTime="0.00" timeLoss="39.04" rerouteNo="0" devices="tripinfo_CVToC.8 routing_CVToC.8 ssm_CVToC.8 toc_CVToC.8 driverstateCVToC.8" vType="vehLVOS813" speedFactor="1.02" vaporized=""/>
    <tripinfo id="LV.4" depart="19.30" departLane="entry_1" departPos="4.75" departSpeed="44.20" departDelay="0.90" arrival="185.80" arrivalLane="e0_1" arrivalPos="4800.00" arrivalSpeed="35.58" duration="166.50" routeLength="4995.25" waitingTime="0.00" waitingCount="0" stopTime="0.00" timeLoss="53.43" rerouteNo="0" devices="tripinfo_LV.4 routing_LV.4 ssm_LV.4" vType="vehLVOS394" speedFactor="1.22" vaporized=""/>
    <tripinfo id="CVToC.7" depart="13.70" departLane="entry_0" departPos="2.64" departSpeed="28.71" departDelay="4.70" arrival="186.60" arrivalLane="e0_0" arrivalPos="4800.00" arrivalSpeed="33.49" duration="172.90" routeLength="4997.36" waitingTime="0.00" waitingCount="0" stopTime="0.00" timeLoss="41.38" rerouteNo="0" devices="tripinfo_CVToC.7 routing_CVToC.7 ssm_CVToC.7 toc_CVToC.7 driverstateCVToC.7" vType="vehLVOS69" speedFactor="1.05" vaporized=""/>
    <tripinfo id="LV.3" depart="21.60" departLane="entry_1" departPos="2.27" departSpeed="42.58" departDelay="5.70" arrival="187.40" arrivalLane="e0_1" arrivalPos="4800.00" arrivalSpeed="37.49" duration="165.80" routeLength="4997.73" waitingTime="0.00" waitingCount="0" stopTime="0.00" timeLoss="48.44" rerouteNo="0" devices="tripinfo_LV.3 routing_LV.3 ssm_LV.3" vType="vehLVOS55" speedFactor="1.18" vaporized=""/>
    <tripinfo id="CAVToC.7" depart="23.50" departLane="entry_1" departPos="8.77" departSpeed="35.92" departDelay="0.00" arrival="188.80" arrivalLane="e0_1" arrivalPos="4800.00" arrivalSpeed="35.89" duration="165.30" routeLength="4991.23" waitingTime="0.00" waitingCount="0" stopTime="0.00" timeLoss="26.29" rerouteNo="0" devices="tripinfo_CAVToC.7 routing_CAVToC.7 ssm_CAVToC.7 toc_CAVToC.7 driverstateCAVToC.7" vType="vehLVOS121" speedFactor="0.99" vaporized=""/>
    <tripinfo id="CAVToC.5" depart="16.70" departLane="entry_0" departPos="0.20" departSpeed="29.34" departDelay="4.80" arrival="189.10" arrivalLane="e0_0" arrivalPos="4800.00" arrivalSpeed="36.06" duration="172.40" routeLength="4999.80" waitingTime="0.00" waitingCount="0" stopTime="0.00" timeLoss="43.35" rerouteNo="0" devices="tripinfo_CAVToC.5 routing_CAVToC.5 ssm_CAVToC.5 toc_CAVToC.5 driverstateCAVToC.5" vType="vehLVOS82" speedFactor="1.07" vaporized=""/>
    <tripinfo id="CAVToC.6" depart="22.40" departLane="entry_0" departPos="2.32" departSpeed="30.32" departDelay="2.10" arrival="190.00" arrivalLane="e0_1" arrivalPos="4800.00" arrivalSpeed="35.88" duration="167.60" routeLength="4997.68" waitingTime="0.00" waitingCount="0" stopTime="0.00" timeLoss="41.62" rerouteNo="0" devices="tripinfo_CAVToC.6 routing_CAVToC.6 ssm_CAVToC.6 toc_CAVToC.6 driverstateCAVToC.6" vType="vehLVOS250" speedFactor="1.10" vaporized=""/>
    <tripinfo id="CVToC.9" depart="19.60" departLane="entry_0" departPos="7.90" departSpeed="29.93" departDelay="1.00" arrival="190.30" arrivalLane="e0_0" arrivalPos="4800.00" arrivalSpeed="33.84" duration="170.70" routeLength="4992.10" waitingTime="0.00" waitingCount="0" stopTime="0.00" timeLoss="26.64" rerouteNo="0" devices="tripinfo_CVToC.9 routing_CVToC.9 ssm_CVToC.9 toc_CVToC.9 driverstateCVToC.9" vType="vehLVOS41" speedFactor="0.96" vaporized=""/>
    <tripinfo id="CVToC.10" depart="25.90" departLane="entry_1" departPos="33.79" departSpeed="28.10" departDelay="0.00" arrival="203.30" arrivalLane="e0_1" arrivalPos="4800.00" arrivalSpeed="28.04" duration="177.40" routeLength="4966.21" waitingTime="0.00" waitingCount="0" stopTime="0.00" timeLoss="0.66" rerouteNo="0" devices="tripinfo_CVToC.10 routing_CVToC.10 ssm_CVToC.10 toc_CVToC.10 driverstateCVToC.10" vType="vehLVOS555" speedFactor="0.78" vaporized=""/>
    <tripinfo id="CAVToC.8" depart="24.80" departLane="entry_0" departPos="8.48" departSpeed="29.45" departDelay="0.90" arrival="204.20" arrivalLane="e0_0" arrivalPos="4800.00" arrivalSpeed="29.43" duration="179.40" routeLength="4991.52" waitingTime="0.00" waitingCount="0" stopTime="0.00" timeLoss="9.91" rerouteNo="0" devices="tripinfo_CAVToC.8 routing_CAVToC.8 ssm_CAVToC.8 toc_CAVToC.8 driverstateCAVToC.8" vType="vehLVOS938" speedFactor="0.82" vaporized=""/>
    <tripinfo id="CAVToC.10" depart="27.70" departLane="entry_1" departPos="7.59" departSpeed="28.89" departDelay="0.20" arrival="205.30" arrivalLane="e0_1" arrivalPos="4800.00" arrivalSpeed="29.04" duration="177.60" routeLength="4992.41" waitingTime="0.00" waitingCount="0" stopTime="0.00" timeLoss="34.17" rerouteNo="0" devices="tripinfo_CAVToC.10 routing_CAVToC.10 ssm_CAVToC.10 toc_CAVToC.10 driverstateCAVToC.10" vType="vehLVOS211" speedFactor="0.96" vaporized=""/>
    <tripinfo id="CVToC.12" depart="30.20" departLane="entry_1" departPos="7.93" departSpeed="29.24" departDelay="0.90" arrival="205.90" arrivalLane="e0_0" arrivalPos="4800.00" arrivalSpeed="30.09" duration="175.70" routeLength="4992.07" waitingTime="0.00" waitingCount="0" stopTime="0.00" timeLoss="21.81" rerouteNo="0" devices="tripinfo_CVToC.12 routing_CVToC.12 ssm_CVToC.12 toc_CVToC.12 driverstateCVToC.12" vType="vehLVOS27" speedFactor="0.90" vaporized=""/>
    <tripinfo id="CVToC.14" depart="32.40" departLane="entry_1" departPos="2.35" departSpeed="29.63" departDelay="0.60" arrival="207.00" arrivalLane="e0_1" arrivalPos="4800.00" arrivalSpeed="30.81" duration="174.60" routeLength="4997.65" waitingTime="0.00" waitingCount="0" stopTime="0.00" timeLoss="25.91" rerouteNo="0" devices="tripinfo_CVToC.14 routing_CVToC.14 ssm_CVToC.14 toc_CVToC.14 driverstateCVToC.14" vType="vehLVOS328" speedFactor="0.93" vaporized=""/>
    <tripinfo id="CAVToC.9" depart="27.40" departLane="entry_0" departPos="6.05" departSpeed="29.37" departDelay="0.40" arrival="207.60" arrivalLane="e0_0" arrivalPos="4800.00" arrivalSpeed="32.22" duration="180.20" routeLength="4993.95" waitingTime="0.00" waitingCount="0" stopTime="0.00" timeLoss="37.72" rerouteNo="0" devices="tripinfo_CAVToC.9 routing_CAVToC.9 ssm_CAVToC.9 toc_CAVToC.9 driverstateCAVToC.9" vType="vehLVOS159" speedFactor="0.97" vaporized=""/>
    <tripinfo id="LV.6" depart="37.00" departLane="entry_1" departPos="3.97" departSpeed="31.52" departDelay="1.70" arrival="208.60" arrivalLane="e0_1" arrivalPos="4800.00" arrivalSpeed="31.36" duration="171.60" routeLength="4996.03" waitingTime="0.00" waitingCount="0" stopTime="0.00" timeLoss="13.05" rerouteNo="0" devices="tripinfo_LV.6 routing_LV.6 ssm_LV.6" vType="vehLVOS286" speedFactor="0.87" vaporized=""/>
    <tripinfo id="CVToC.13" depart="35.00" departLane="entry_1" departPos="5.94" departSpeed="30.01" departDelay="4.20" arrival="209.40" arrivalLane="e0_0" arrivalPos="4800.00" arrivalSpeed="33.08" duration="174.40" routeLength="4994.06" waitingTime="0.00" waitingCount="0" stopTime="0.00" timeLoss="29.05" rerouteNo="0" devices="tripinfo_CVToC.13 routing_CVToC.13 ssm_CVToC.13 toc_CVToC.13 driverstateCVToC.13" vType="vehLVOS582" speedFactor="0.95" vaporized=""/>
    <tripinfo id="CVToC.15" depart="40.10" departLane="entry_1" departPos="13.79" departSpeed="31.76" departDelay="7.10" arrival="211.10" arrivalLane="e0_1" arrivalPos="4800.00" arrivalSpeed="36.05" duration="171.00" routeLength="4986.21" waitingTime="0.00" waitingCount="0" stopTime="0.00" timeLoss="44.88" rerouteNo="0" devices="tripinfo_CVToC.15 routing_CVToC.15 ssm_CVToC.15 toc_CVToC.15 driverstateCVToC.15" vType="vehLVOS444" speedFactor="1.09" vaporized=""/>
    <tripinfo id="CAVToC.11" depart="29.70" departLane="entry_0" departPos="11.45" departSpeed="28.00" departDelay="0.50" arrival="212.50" arrivalLane="e0_0" arrivalPos="4800.00" arrivalSpeed="27.99" duration="182.80" routeLength="4988.55" waitingTime="0.00" waitingCount="0" stopTime="0.00" timeLoss="4.57" rerouteNo="0" devices="tripinfo_CAVToC.11 routing_CAVToC.11 ssm_CAVToC.11 toc_CAVToC.11 driverstateCAVToC.11" vType="vehLVOS127" speedFactor="0.78" vaporized=""/>
    <tripinfo id="CAVToC.13" depart="43.00" departLane="entry_1" departPos="36.07" departSpeed="31.24" departDelay="5.80" arrival="212.70" arrivalLane="e0_1" arrivalPos="4800.00" arrivalSpeed="31.53" duration="169.70" routeLength="4963.93" waitingTime="0.00" waitingCount="0" stopTime="0.00" timeLoss="12.41" rerouteNo="0" devices="tripinfo_CAVToC.13 routing_CAVToC.13 ssm_CAVToC.13 toc_CAVToC.13 driverstateCAVToC.13" vType="vehLVOS11" speedFactor="0.87" vaporized=""/>
    <tripinfo id="CVToC.17" depart="44.40" departLane="entry_1" departPos="5.23" departSpeed="31.70" departDelay="5.60" arrival="214.00" arrivalLane="e0_1" arrivalPos="4800.00" arrivalSpeed="34.50" duration="169.60" routeLength="4994.77" waitingTime="0.00" waitingCount="0" stopTime="0.00" timeLoss="30.72" rerouteNo="0" devices="tripinfo_CVToC.17 routing_CVToC.17 ssm_CVToC.17 toc_CVToC.17 driverstateCVToC.17" vType="vehLVOS292" speedFactor="1.00" vaporized=""/>
    <tripinfo id="CVToC.11" depart="32.20" departLane="entry_0" departPos="2.26" departSpeed="28.19" departDelay="3.60" arrival="215.20" arrivalLane="e0_0" arrivalPos="4800.00" arrivalSpeed="32.49" duration="183.00" routeLength="4997.74" waitingTime="0.00" waitingCount="0" stopTime="0.00" timeLoss="43.54" rerouteNo="0" devices="tripinfo_CVToC.11 routing_CVToC.11 ssm_CVToC.11 toc_CVToC.11 driverstateCVToC.11" vType="vehLVOS743" speedFactor="0.99" vaporized=""/>
    <tripinfo id="CAVToC.12" depart="35.20" departLane="entry_0" departPos="3.37" departSpeed="28.12" departDelay="5.90" arrival="216.20" arrivalLane="e0_0" arrivalPos="4800.00" arrivalSpeed="34.41" duration="181.00" routeLength="4996.63" waitingTime="0.00" waitingCount="0" stopTime="0.00" timeLoss="46.95" rerouteNo="0" devices="tripinfo_CAVToC.12 routing_CAVToC.12 ssm_CAVToC.12 toc_CAVToC.12 driverstateCAVToC.12" vType="vehLVOS78" speedFactor="1.03" vaporized=""/>
    <tripinfo id="LV.7" depart="47.10" departLane="entry_1" departPos="31.82" departSpeed="33.61" departDelay="10.90" arrival="216.60" arrivalLane="e0_1" arrivalPos="4800.00" arrivalSpeed="33.52" duration="169.50" routeLength="4968.18" waitingTime="0.00" waitingCount="0" stopTime="0.00" timeLoss="21.62" rerouteNo="0" devices="tripinfo_LV.7 routing_LV.7 ssm_LV.7" vType="vehLVOS690" speedFactor="0.93" vaporized=""/>
    <tripinfo id="CAVToC.15" depart="48.50" departLane="entry_1" departPos="6.68" departSpeed="32.92" departDelay="6.40" arrival="217.60" arrivalLane="e0_1" arrivalPos="4800.00" arrivalSpeed="32.88" duration="169.10" routeLength="4993.32" waitingTime="0.00" waitingCount="0" stopTime="0.00" timeLoss="17.66" rerouteNo="0" devices="tripinfo_CAVToC.15 routing_CAVToC.15 ssm_CAVToC.15 toc_CAVToC.15 driverstateCAVToC.15" vType="vehLVOS489" speedFactor="0.91" vaporized=""/>
    <tripinfo id="CVToC.16" depart="38.40" departLane="entry_0" departPos="6.75" departSpeed="28.55" departDelay="2.40" arrival="217.90" arrivalLane="e0_0" arrivalPos="4800.00" arrivalSpeed="33.14" duration="179.50" routeLength="4993.25" waitingTime="0.00" waitingCount="0" stopTime="0.00" timeLoss="47.22" rerouteNo="0" devices="tripinfo_CVToC.16 routing_CVToC.16 ssm_CVToC.16 toc_CVToC.16 driverstateCVToC.16" vType="vehLVOS700" speedFactor="1.05" vaporized=""/>
    <tripinfo id="CVToC.21" depart="51.50" departLane="entry_1" departPos="20.26" departSpeed="32.25" departDelay="6.50" arrival="219.10" arrivalLane="e0_1" arrivalPos="4800.00" arrivalSpeed="36.30" duration="167.60" routeLength="4979.74" waitingTime="0.00" waitingCount="0" stopTime="0.00" timeLoss="34.57" rerouteNo="0" devices="tripinfo_CVToC.21 routing_CVToC.21 ssm_CVToC.21 toc_CVToC.21 driverstateCVToC.21" vType="vehLVOS236" speedFactor="1.04" vaporized=""/>
    <tripinfo id="CAVToC.14" depart="40.80" departLane="entry_0" departPos="2.55" departSpeed="28.80" departDelay="3.30" arrival="219.50" arrivalLane="e0_0" arrivalPos="4800.00" arrivalSpeed="32.86" duration="178.70" routeLength="4997.45" waitingTime="0.00" waitingCount="0" stopTime="0.00" timeLoss="26.87" rerouteNo="0" devices="tripinfo_CAVToC.14 routing_CAVToC.14 ssm_CAVToC.14 toc_CAVToC.14 driverstateCAVToC.14" vType="vehLVOS662" speedFactor="0.91" vaporized=""/>
    <tripinfo id="CAVToC.16" depart="53.70" departLane="entry_1" departPos="7.02" departSpeed="31.14" departDelay="11.30" arrival="220.30" arrivalLane="e0_1" arrivalPos="4800.00" arrivalSpeed="35.64" duration="166.60" routeLength="4992.98" waitingTime="0.00" waitingCount="0" stopTime="0.00" timeLoss="36.07" rerouteNo="0" devices="tripinfo_CAVToC.16 routing_CAVToC.16 ssm_CAVToC.16 toc_CAVToC.16 driverstateCAVToC.16" vType="vehLVOS921" speedFactor="1.06" vaporized=""/>
    <tripinfo id="CVToC.18" depart="45.00" departLane="entry_0" departPos="36.62" departSpeed="28.44" departDelay="5.50" arrival="220.80" arrivalLane="e0_0" arrivalPos="4800.00" arrivalSpeed="34.44" duration="175.80" routeLength="4963.38" waitingTime="0.00" waitingCount="0" stopTime="0.00" timeLoss="44.27" rerouteNo="0" devices="tripinfo_CVToC.18 routing_CVToC.18 ssm_CVToC.18 toc_CVToC.18 driverstateCVToC.18" vType="vehLVOS403" speedFactor="1.05" vaporized=""/>
    <tripinfo id="CVToC.24" depart="56.90" departLane="entry_1" departPos="30.51" departSpeed="29.53" departDelay="10.80" arrival="222.00" arrivalLane="e0_1" arrivalPos="4800.00" arrivalSpeed="34.41" duration="165.10" routeLength="4969.49" waitingTime="0.00" waitingCount="0" stopTime="0.00" timeLoss="20.89" rerouteNo="0" devices="tripinfo_CVToC.24 routing_CVToC.24 ssm_CVToC.24 toc_CVToC.24 driverstateCVToC.24" vType="vehLVOS437" speedFactor="0.95" vaporized=""/>
    <tripinfo id="CVToC.19" depart="47.20" departLane="entry_0" departPos="13.03" departSpeed="29.39" departDelay="7.50" arrival="222.40" arrivalLane="e0_0" arrivalPos="4800.00" arrivalSpeed="35.19" duration="175.20" routeLength="4986.97" waitingTime="0.00" waitingCount="0" stopTime="0.00" timeLoss="48.23" rerouteNo="0" devices="tripinfo_CVToC.19 routing_CVToC.19 ssm_CVToC.19 toc_CVToC.19 driverstateCVToC.19" vType="vehLVOS795" speedFactor="1.09" vaporized=""/>
    <tripinfo id="CVToC.20" depart="49.80" departLane="entry_0" departPos="5.13" departSpeed="30.08" departDelay="8.40" arrival="224.10" arrivalLane="e0_0" arrivalPos="4800.00" arrivalSpeed="39.03" duration="174.30" routeLength="4994.87" waitingTime="0.00" waitingCount="0" stopTime="0.00" timeLoss="46.35" rerouteNo="0" devices="tripinfo_CVToC.20 routing_CVToC.20 ssm_CVToC.20 toc_CVToC.20 driverstateCVToC.20" vType="vehLVOS248" speedFactor="1.08" vaporized=""/>
    <tripinfo id="CAVToC.18" depart="61.30" departLane="entry_1" departPos="19.15" departSpeed="28.93" departDelay="11.80" arrival="225.40" arrivalLane="e0_1" arrivalPos="4800.00" arrivalSpeed="34.33" duration="164.10" routeLength="4980.85" waitingTime="0.00" waitingCount="0" stopTime="0.00" timeLoss="19.14" rerouteNo="0" devices="tripinfo_CAVToC.18 routing_CAVToC.18 ssm_CAVToC.18 toc_CAVToC.18 driverstateCAVToC.18" vType="vehLVOS935" speedFactor="0.95" vaporized=""/>
    <tripinfo id="CAVToC.21" depart="67.40" departLane="entry_1" departPos="13.10" departSpeed="29.42" departDelay="12.60" arrival="227.60" arrivalLane="e0_1" arrivalPos="4800.00" arrivalSpeed="35.55" duration="160.20" routeLength="4986.90" waitingTime="0.00" waitingCount="0" stopTime="0.00" timeLoss="20.02" rerouteNo="0" devices="tripinfo_CAVToC.21 routing_CAVToC.21 ssm_CAVToC.21 toc_CAVToC.21 driverstateCAVToC.21" vType="vehLVOS42" speedFactor="0.99" vaporized=""/>
    <tripinfo id="CVToC.22" depart="52.80" departLane="entry_0" departPos="5.43" departSpeed="30.08" departDelay="7.70" arrival="227.90" arrivalLane="e0_0" arrivalPos="4800.00" arrivalSpeed="36.11" duration="175.10" routeLength="4994.57" waitingTime="0.00" waitingCount="0" stopTime="0.00" timeLoss="51.54" rerouteNo="0" devices="tripinfo_CVToC.22 routing_CVToC.22 ssm_CVToC.22 toc_CVToC.22 driverstateCVToC.22" vType="vehLVOS901" speedFactor="1.12" vaporized=""/>
    <tripinfo id="CVToC.27" depart="70.50" departLane="entry_1" departPos="17.27" departSpeed="28.14" departDelay="13.50" arrival="228.40" arrivalLane="e0_1" arrivalPos="4800.00" arrivalSpeed="37.06" duration="157.90" routeLength="4982.73" waitingTime="0.00" waitingCount="0" stopTime="0.00" timeLoss="30.40" rerouteNo="0" devices="tripinfo_CVToC.27 routing_CVToC.27 ssm_CVToC.27 toc_CVToC.27 driverstateCVToC.27" vType="vehLVOS60" speedFactor="1.08" vaporized=""/>
    <tripinfo id="CVToC.28" depart="72.90" departLane="entry_1" departPos="3.97" departSpeed="27.41" departDelay="13.60" arrival="229.30" arrivalLane="e0_1" arrivalPos="4800.00" arrivalSpeed="36.34" duration="156.40" routeLength="4996.03" waitingTime="0.00" waitingCount="0" stopTime="0.00" timeLoss="19.07" rerouteNo="0" devices="tripinfo_CVToC.28 routing_CVToC.28 ssm_CVToC.28 toc_CVToC.28 driverstateCVToC.28" vType="vehLVOS725" speedFactor="1.01" vaporized=""/>
    <tripinfo id="CVToC.23" depart="58.50" departLane="entry_1" departPos="12.73" departSpeed="29.10" departDelay="13.30" arrival="231.10" arrivalLane="e0_0" arrivalPos="4800.00" arrivalSpeed="30.72" duration="172.60" routeLength="4987.27" waitingTime="0.00" waitingCount="0" stopTime="0.00" timeLoss="10.18" rerouteNo="0" devices="tripinfo_CVToC.23 routing_CVToC.23 ssm_CVToC.23 toc_CVToC.23 driverstateCVToC.23" vType="vehLVOS249" speedFactor="0.85" vaporized=""/>
    <tripinfo id="LV.10" depart="64.20" departLane="entry_1" departPos="45.53" departSpeed="31.28" departDelay="11.00" arrival="231.10" arrivalLane="e0_1" arrivalPos="4800.00" arrivalSpeed="31.26" duration="166.90" routeLength="4954.47" waitingTime="0.00" waitingCount="0" stopTime="0.00" timeLoss="8.48" rerouteNo="0" devices="tripinfo_LV.10 routing_LV.10 ssm_LV.10" vType="vehLVOS517" speedFactor="0.87" vaporized=""/>
    <tripinfo id="CVToC.26" depart="75.80" departLane="entry_1" departPos="8.56" departSpeed="26.16" departDelay="20.00" arrival="233.70" arrivalLane="e0_1" arrivalPos="4800.00" arrivalSpeed="32.93" duration="157.90" routeLength="4991.44" waitingTime="0.00" waitingCount="0" stopTime="0.00" timeLoss="6.35" rerouteNo="0" devices="tripinfo_CVToC.26 routing_CVToC.26 ssm_CVToC.26 toc_CVToC.26 driverstateCVToC.26" vType="vehLVOS414" speedFactor="0.91" vaporized=""/>
    <tripinfo id="CVToC.30" depart="81.20" departLane="entry_1" departPos="68.45" departSpeed="24.52" departDelay="19.60" arrival="235.30" arrivalLane="e0_1" arrivalPos="4800.00" arrivalSpeed="33.92" duration="154.10" routeLength="4931.55" waitingTime="0.00" waitingCount="0" stopTime="0.00" timeLoss="8.86" rerouteNo="0" devices="tripinfo_CVToC.30 routing_CVToC.30 ssm_CVToC.30 toc_CVToC.30 driverstateCVToC.30" vType="vehLVOS186" speedFactor="0.94" vaporized=""/>
    <tripinfo id="LV.11" depart="64.90" departLane="entry_1" departPos="19.27" departSpeed="30.23" departDelay="10.10" arrival="237.00" arrivalLane="e0_0" arrivalPos="4800.00" arrivalSpeed="30.12" duration="172.10" routeLength="4980.73" waitingTime="0.00" waitingCount="0" stopTime="0.00" timeLoss="7.29" rerouteNo="0" devices="tripinfo_LV.11 routing_LV.11 ssm_LV.11" vType="vehLVOS933" speedFactor="0.84" vaporized=""/>
    <tripinfo id="CVToC.31" depart="83.40" departLane="entry_1" departPos="40.88" departSpeed="26.04" departDelay="21.00" arrival="237.50" arrivalLane="e0_1" arrivalPos="4800.00" arrivalSpeed="35.82" duration="154.10" routeLength="4959.12" waitingTime="0.00" waitingCount="0" stopTime="0.00" timeLoss="16.16" rerouteNo="0" devices="tripinfo_CVToC.31 routing_CVToC.31 ssm_CVToC.31 toc_CVToC.31 driverstateCVToC.31" vType="vehLVOS132" speedFactor="1.00" vaporized=""/>
    <tripinfo id="CAVToC.17" depart="57.50" departLane="entry_0" departPos="54.70" departSpeed="26.47" departDelay="12.00" arrival="238.30" arrivalLane="e0_0" arrivalPos="4800.00" arrivalSpeed="32.23" duration="180.80" routeLength="4945.30" waitingTime="0.00" waitingCount="0" stopTime="0.00" timeLoss="43.66" rerouteNo="0" devices="tripinfo_CAVToC.17 routing_CAVToC.17 ssm_CAVToC.17 toc_CAVToC.17 driverstateCAVToC.17" vType="vehLVOS87" speedFactor="1.00" vaporized=""/>
    <tripinfo id="CVToC.25" depart="59.20" departLane="entry_0" departPos="13.47" departSpeed="27.26" departDelay="10.60" arrival="239.10" arrivalLane="e0_0" arrivalPos="4800.00" arrivalSpeed="32.28" duration="179.90" routeLength="4986.53" waitingTime="0.00" waitingCount="0" stopTime="0.00" timeLoss="54.87" rerouteNo="0" devices="tripinfo_CVToC.25 routing_CVToC.25 ssm_CVToC.25 toc_CVToC.25 driverstateCVToC.25" vType="vehLVOS13" speedFactor="1.10" vaporized=""/>
    <tripinfo id="LV.16" depart="86.90" departLane="entry_1" departPos="17.30" departSpeed="34.95" departDelay="22.00" arrival="239.20" arrivalLane="e0_1" arrivalPos="4800.00" arrivalSpeed="34.95" duration="152.30" routeLength="4982.70" waitingTime="0.00" waitingCount="0" stopTime="0.00" timeLoss="9.75" rerouteNo="0" devices="tripinfo_LV.16 routing_LV.16 ssm_LV.16" vType="vehLVOS747" speedFactor="0.97" vaporized=""/>