<?xml version="1.0" encoding="UTF-8"?>

<!-- generated on Thu Aug 27 09:48:53 2020 by Eclipse SUMO sumo Version v1_6_0+1341-81c8bfe906
<configuration xmlns:xsi="http://www.w3.org/2001/XMLSchema-instance" xsi:noNamespaceSchemaLocation="http://sumo.dlr.de/xsd/sumoConfiguration.xsd">

    <input>
        <net-file value="scenario/UC5_1.net.xml"/>
        <route-files value="scenario/routes_trafficMix_0_trafficDemand_1_driverBehaviour_OS_seed_0.xml"/>
        <additional-files value="scenario/additionalsOutput_trafficMix_0_trafficDemand_1_driverBehaviour_OS_seed_0.xml,scenario/vTypesCAVToC_OS.add.xml,scenario/vTypesCVToC_OS.add.xml,scenario/vTypesLV_OS.add.xml,scenario/shapes.add.xml,scenario/view.add.xml"/>
    </input>

    <output>
        <tripinfo-output value="/home/anoulis/workspace/tor-distribution/outputs/simulations/DQN__2020-08-26_22-11-43__20200827-094847/tripinfo_1.xml"/>
    </output>

    <time>
        <step-length value="0.1"/>
    </time>

    <processing>
        <step-method.ballistic value="true"/>
        <ignore-route-errors value="true"/>
        <lanechange.duration value="2.5"/>
    </processing>

    <report>
        <no-step-log value="true"/>
    </report>

    <toc_device>
        <device.toc.ogNewTimeHeadway value="100"/>
        <device.toc.ogNewSpaceHeadway value="5"/>
        <device.toc.ogMaxDecel value="1"/>
        <device.toc.ogChangeRate value="1"/>
    </toc_device>

    <traci_server>
        <remote-port value="44627"/>
    </traci_server>

    <random_number>
        <seed value="1025"/>
    </random_number>

    <gui_only>
        <tracker-interval value="0.1"/>
    </gui_only>

</configuration>
-->

<tripinfos xmlns:xsi="http://www.w3.org/2001/XMLSchema-instance" xsi:noNamespaceSchemaLocation="http://sumo.dlr.de/xsd/tripinfo_file.xsd">
    <tripinfo id="CVToC.2" depart="7.10" departLane="entry_1" departPos="199.90" departSpeed="37.77" departDelay="0.00" arrival="133.00" arrivalLane="e0_1" arrivalPos="4800.00" arrivalSpeed="40.59" duration="125.90" routeLength="4800.10" waitingTime="0.00" waitingCount="0" stopTime="0.00" timeLoss="7.62" rerouteNo="0" devices="tripinfo_CVToC.2 routing_CVToC.2 ssm_CVToC.2 toc_CVToC.2 driverstateCVToC.2" vType="vehLVOS696" speedFactor="1.12" vaporized=""/>
    <tripinfo id="LV.0" depart="4.60" departLane="entry_1" departPos="199.90" departSpeed="37.23" departDelay="0.00" arrival="133.80" arrivalLane="e0_0" arrivalPos="4800.00" arrivalSpeed="37.10" duration="129.20" routeLength="4800.10" waitingTime="0.00" waitingCount="0" stopTime="0.00" timeLoss="0.25" rerouteNo="0" devices="tripinfo_LV.0 routing_LV.0 ssm_LV.0" vType="vehLVOS656" speedFactor="1.03" vaporized=""/>
    <tripinfo id="LV.1" depart="8.00" departLane="entry_1" departPos="145.28" departSpeed="39.19" departDelay="0.00" arrival="138.50" arrivalLane="e0_1" arrivalPos="4800.00" arrivalSpeed="39.17" duration="130.50" routeLength="4854.72" waitingTime="0.00" waitingCount="0" stopTime="0.00" timeLoss="6.60" rerouteNo="0" devices="tripinfo_LV.1 routing_LV.1 ssm_LV.1" vType="vehLVOS687" speedFactor="1.09" vaporized=""/>
    <tripinfo id="CVToC.0" depart="2.30" departLane="entry_0" departPos="199.90" departSpeed="35.42" departDelay="0.00" arrival="139.20" arrivalLane="e0_0" arrivalPos="4800.00" arrivalSpeed="35.35" duration="136.90" routeLength="4800.10" waitingTime="0.00" waitingCount="0" stopTime="0.00" timeLoss="1.30" rerouteNo="0" devices="tripinfo_CVToC.0 routing_CVToC.0 ssm_CVToC.0 toc_CVToC.0 driverstateCVToC.0" vType="vehLVOS473" speedFactor="0.98" vaporized=""/>
    <tripinfo id="CVToC.3" depart="9.00" departLane="entry_1" departPos="98.71" departSpeed="36.84" departDelay="0.00" arrival="139.80" arrivalLane="e0_1" arrivalPos="4800.00" arrivalSpeed="41.21" duration="130.80" routeLength="4901.29" waitingTime="0.00" waitingCount="0" stopTime="0.00" timeLoss="13.25" rerouteNo="0" devices="tripinfo_CVToC.3 routing_CVToC.3 ssm_CVToC.3 toc_CVToC.3 driverstateCVToC.3" vType="vehLVOS944" speedFactor="1.16" vaporized=""/>
    <tripinfo id="CVToC.4" depart="13.40" departLane="entry_0" departPos="196.60" departSpeed="29.22" departDelay="0.20" arrival="147.70" arrivalLane="e0_1" arrivalPos="4800.00" arrivalSpeed="36.20" duration="134.30" routeLength="4803.40" waitingTime="0.00" waitingCount="0" stopTime="0.00" timeLoss="1.73" rerouteNo="0" devices="tripinfo_CVToC.4 routing_CVToC.4 ssm_CVToC.4 toc_CVToC.4 driverstateCVToC.4" vType="vehLVOS911" speedFactor="1.00" vaporized=""/>
    <tripinfo id="CVToC.1" depart="3.50" departLane="entry_0" departPos="173.43" departSpeed="32.53" departDelay="0.00" arrival="152.20" arrivalLane="e0_0" arrivalPos="4800.00" arrivalSpeed="32.52" duration="148.70" routeLength="4826.57" waitingTime="0.00" waitingCount="0" stopTime="0.00" timeLoss="0.32" rerouteNo="0" devices="tripinfo_CVToC.1 routing_CVToC.1 ssm_CVToC.1 toc_CVToC.1 driverstateCVToC.1" vType="vehLVOS645" speedFactor="0.90" vaporized=""/>
    <tripinfo id="LV.3" depart="13.60" departLane="entry_0" departPos="140.52" departSpeed="33.19" departDelay="0.50" arrival="162.20" arrivalLane="e0_0" arrivalPos="4800.00" arrivalSpeed="33.12" duration="148.60" routeLength="4859.48" waitingTime="0.00" waitingCount="0" stopTime="0.00" timeLoss="2.08" rerouteNo="0" devices="tripinfo_LV.3 routing_LV.3 ssm_LV.3" vType="vehLVOS630" speedFactor="0.92" vaporized=""/>
    <tripinfo id="CAVToC.2" depart="11.30" departLane="entry_1" departPos="13.40" departSpeed="23.22" departDelay="0.00" arrival="163.80" arrivalLane="e0_1" arrivalPos="4800.00" arrivalSpeed="34.01" duration="152.50" routeLength="4986.60" waitingTime="0.00" waitingCount="0" stopTime="0.00" timeLoss="5.88" rerouteNo="0" devices="tripinfo_CAVToC.2 routing_CAVToC.2 ssm_CAVToC.2 toc_CAVToC.2 driverstateCAVToC.2" vType="vehLVOS876" speedFactor="0.94" vaporized=""/>
    <tripinfo id="CAVToC.0" depart="10.00" departLane="entry_1" departPos="69.42" departSpeed="32.14" departDelay="0.00" arrival="164.60" arrivalLane="e0_0" arrivalPos="4800.00" arrivalSpeed="32.11" duration="154.60" routeLength="4930.58" waitingTime="0.00" waitingCount="0" stopTime="0.00" timeLoss="1.12" rerouteNo="0" devices="tripinfo_CAVToC.0 routing_CAVToC.0 ssm_CAVToC.0 toc_CAVToC.0 driverstateCAVToC.0" vType="vehLVOS228" speedFactor="0.89" vaporized=""/>
    <tripinfo id="CAVToC.1" depart="10.60" departLane="entry_0" departPos="199.90" departSpeed="28.27" departDelay="0.00" arrival="180.50" arrivalLane="e0_0" arrivalPos="4800.00" arrivalSpeed="28.26" duration="169.90" routeLength="4800.10" waitingTime="0.00" waitingCount="0" stopTime="0.00" timeLoss="0.03" rerouteNo="0" devices="tripinfo_CAVToC.1 routing_CAVToC.1 ssm_CAVToC.1 toc_CAVToC.1 driverstateCAVToC.1" vType="vehLVOS103" speedFactor="0.78" vaporized=""/>
    <tripinfo id="CVToC.6" depart="19.00" departLane="entry_1" departPos="52.78" departSpeed="31.10" departDelay="0.00" arrival="181.10" arrivalLane="e0_1" arrivalPos="4800.00" arrivalSpeed="31.02" duration="162.10" routeLength="4947.22" waitingTime="0.00" waitingCount="0" stopTime="0.00" timeLoss="2.99" rerouteNo="0" devices="tripinfo_CVToC.6 routing_CVToC.6 ssm_CVToC.6 toc_CVToC.6 driverstateCVToC.6" vType="vehLVOS345" speedFactor="0.86" vaporized=""/>
    <tripinfo id="LV.6" depart="18.90" departLane="entry_1" departPos="116.64" departSpeed="31.11" departDelay="0.00" arrival="181.90" arrivalLane="e0_0" arrivalPos="4800.00" arrivalSpeed="29.71" duration="163.00" routeLength="4883.36" waitingTime="0.00" waitingCount="0" stopTime="0.00" timeLoss="6.02" rerouteNo="0" devices="tripinfo_LV.6 routing_LV.6 ssm_LV.6" vType="vehLVOS774" speedFactor="0.86" vaporized=""/>
    <tripinfo id="LV.8" depart="21.80" departLane="entry_1" departPos="42.38" departSpeed="35.64" departDelay="1.70" arrival="183.00" arrivalLane="e0_1" arrivalPos="4800.00" arrivalSpeed="33.46" duration="161.20" routeLength="4957.62" waitingTime="0.00" waitingCount="0" stopTime="0.00" timeLoss="22.04" rerouteNo="0" devices="tripinfo_LV.8 routing_LV.8 ssm_LV.8" vType="vehLVOS557" speedFactor="0.99" vaporized=""/>
    <tripinfo id="LV.9" depart="22.00" departLane="entry_0" departPos="0.83" departSpeed="34.03" departDelay="0.20" arrival="184.90" arrivalLane="e0_1" arrivalPos="4800.00" arrivalSpeed="33.98" duration="162.90" routeLength="4999.17" waitingTime="0.00" waitingCount="0" stopTime="0.00" timeLoss="16.00" rerouteNo="0" devices="tripinfo_LV.9 routing_LV.9 ssm_LV.9" vType="vehLVOS437" speedFactor="0.94" vaporized=""/>
    <tripinfo id="CVToC.7" depart="22.70" departLane="entry_1" departPos="6.04" departSpeed="32.97" departDelay="0.30" arrival="184.90" arrivalLane="e0_0" arrivalPos="4800.00" arrivalSpeed="32.92" duration="162.20" routeLength="4993.96" waitingTime="0.00" waitingCount="0" stopTime="0.00" timeLoss="10.71" rerouteNo="0" devices="tripinfo_CVToC.7 routing_CVToC.7 ssm_CVToC.7 toc_CVToC.7 driverstateCVToC.7" vType="vehLVOS930" speedFactor="0.91" vaporized=""/>
    <tripinfo id="CAVToC.5" depart="24.90" departLane="entry_1" departPos="0.92" departSpeed="33.27" departDelay="3.00" arrival="186.50" arrivalLane="e0_1" arrivalPos="4800.00" arrivalSpeed="34.82" duration="161.60" routeLength="4999.08" waitingTime="0.00" waitingCount="0" stopTime="0.00" timeLoss="18.19" rerouteNo="0" devices="tripinfo_CAVToC.5 routing_CAVToC.5 ssm_CAVToC.5 toc_CAVToC.5 driverstateCAVToC.5" vType="vehLVOS194" speedFactor="0.97" vaporized=""/>
    <tripinfo id="CVToC.8" depart="27.40" departLane="entry_1" departPos="0.79" departSpeed="33.10" departDelay="4.10" arrival="189.40" arrivalLane="e0_1" arrivalPos="4800.00" arrivalSpeed="34.85" duration="162.00" routeLength="4999.21" waitingTime="0.00" waitingCount="0" stopTime="0.00" timeLoss="34.07" rerouteNo="0" devices="tripinfo_CVToC.8 routing_CVToC.8 ssm_CVToC.8 toc_CVToC.8 driverstateCVToC.8" vType="vehLVOS508" speedFactor="1.08" vaporized=""/>
    <tripinfo id="CVToC.10" depart="29.80" departLane="entry_1" departPos="3.85" departSpeed="32.05" departDelay="2.70" arrival="190.10" arrivalLane="e0_0" arrivalPos="4800.00" arrivalSpeed="35.56" duration="160.30" routeLength="4996.15" waitingTime="0.00" waitingCount="0" stopTime="0.00" timeLoss="19.82" rerouteNo="0" devices="tripinfo_CVToC.10 routing_CVToC.10 ssm_CVToC.10 toc_CVToC.10 driverstateCVToC.10" vType="vehLVOS597" speedFactor="0.99" vaporized=""/>
    <tripinfo id="CVToC.12" depart="32.30" departLane="entry_1" departPos="1.62" departSpeed="30.91" departDelay="1.60" arrival="190.70" arrivalLane="e0_1" arrivalPos="4800.00" arrivalSpeed="36.34" duration="158.40" routeLength="4998.38" waitingTime="0.00" waitingCount="0" stopTime="0.00" timeLoss="21.15" rerouteNo="0" devices="tripinfo_CVToC.12 routing_CVToC.12 ssm_CVToC.12 toc_CVToC.12 driverstateCVToC.12" vType="vehLVOS709" speedFactor="1.01" vaporized=""/>
    <tripinfo id="CVToC.14" depart="38.10" departLane="entry_1" departPos="17.10" departSpeed="26.78" departDelay="0.00" arrival="192.10" arrivalLane="e0_1" arrivalPos="4800.00" arrivalSpeed="36.09" duration="154.00" routeLength="4982.90" waitingTime="0.00" waitingCount="0" stopTime="0.00" timeLoss="19.89" rerouteNo="0" devices="tripinfo_CVToC.14 routing_CVToC.14 ssm_CVToC.14 toc_CVToC.14 driverstateCVToC.14" vType="vehLVOS479" speedFactor="1.03" vaporized=""/>
    <tripinfo id="CVToC.15" depart="40.90" departLane="entry_1" departPos="15.95" departSpeed="27.06" departDelay="1.60" arrival="194.10" arrivalLane="e0_0" arrivalPos="4800.00" arrivalSpeed="34.69" duration="153.20" routeLength="4984.05" waitingTime="0.00" waitingCount="0" stopTime="0.00" timeLoss="9.58" rerouteNo="0" devices="tripinfo_CVToC.15 routing_CVToC.15 ssm_CVToC.15 toc_CVToC.15 driverstateCVToC.15" vType="vehLVOS976" speedFactor="0.96" vaporized=""/>
    <tripinfo id="CAVToC.7" depart="43.70" departLane="entry_1" departPos="10.48" departSpeed="29.07" departDelay="8.90" arrival="194.50" arrivalLane="e0_1" arrivalPos="4800.00" arrivalSpeed="38.09" duration="150.80" routeLength="4989.52" waitingTime="0.00" waitingCount="0" stopTime="0.00" timeLoss="19.83" rerouteNo="0" devices="tripinfo_CAVToC.7 routing_CAVToC.7 ssm_CAVToC.7 toc_CAVToC.7 driverstateCAVToC.7" vType="vehLVOS660" speedFactor="1.06" vaporized=""/>
    <tripinfo id="LV.15" depart="48.00" departLane="entry_1" departPos="72.57" departSpeed="34.75" departDelay="5.70" arrival="196.60" arrivalLane="e0_0" arrivalPos="4800.00" arrivalSpeed="34.75" duration="148.60" routeLength="4927.43" waitingTime="0.00" waitingCount="0" stopTime="0.00" timeLoss="6.80" rerouteNo="0" devices="tripinfo_LV.15 routing_LV.15 ssm_LV.15" vType="vehLVOS180" speedFactor="0.96" vaporized=""/>
    <tripinfo id="LV.13" depart="47.10" departLane="entry_0" departPos="32.73" departSpeed="36.93" departDelay="9.30" arrival="197.60" arrivalLane="e0_1" arrivalPos="4800.00" arrivalSpeed="36.89" duration="150.50" routeLength="4967.27" waitingTime="0.00" waitingCount="0" stopTime="0.00" timeLoss="15.93" rerouteNo="0" devices="tripinfo_LV.13 routing_LV.13 ssm_LV.13" vType="vehLVOS81" speedFactor="1.02" vaporized=""/>
    <tripinfo id="CVToC.13" depart="34.70" departLane="entry_1" departPos="5.75" departSpeed="28.86" departDelay="2.70" arrival="199.70" arrivalLane="e0_0" arrivalPos="4800.00" arrivalSpeed="30.49" duration="165.00" routeLength="4994.25" waitingTime="0.00" waitingCount="0" stopTime="0.00" timeLoss="1.64" rerouteNo="0" devices="tripinfo_CVToC.13 routing_CVToC.13 ssm_CVToC.13 toc_CVToC.13 driverstateCVToC.13" vType="vehLVOS496" speedFactor="0.85" vaporized=""/>
    <tripinfo id="CAVToC.13" depart="49.60" departLane="entry_1" departPos="54.37" departSpeed="34.55" departDelay="5.60" arrival="200.30" arrivalLane="e0_1" arrivalPos="4800.00" arrivalSpeed="34.50" duration="150.70" routeLength="4945.63" waitingTime="0.00" waitingCount="0" stopTime="0.00" timeLoss="7.51" rerouteNo="0" devices="tripinfo_CAVToC.13 routing_CAVToC.13 ssm_CAVToC.13 toc_CAVToC.13 driverstateCAVToC.13" vType="vehLVOS706" speedFactor="0.96" vaporized=""/>
    <tripinfo id="CAVToC.11" depart="53.20" departLane="entry_1" departPos="3.74" departSpeed="31.07" departDelay="10.30" arrival="202.80" arrivalLane="e0_1" arrivalPos="4800.00" arrivalSpeed="40.72" duration="149.60" routeLength="4996.26" waitingTime="0.00" waitingCount="0" stopTime="0.00" timeLoss="26.83" rerouteNo="0" devices="tripinfo_CAVToC.11 routing_CAVToC.11 ssm_CAVToC.11 toc_CAVToC.11 driverstateCAVToC.11" vType="vehLVOS511" speedFactor="1.13" vaporized=""/>
    <tripinfo id="CVToC.17" depart="58.60" departLane="entry_1" departPos="21.01" departSpeed="31.39" departDelay="11.60" arrival="203.70" arrivalLane="e0_0" arrivalPos="4800.00" arrivalSpeed="39.22" duration="145.10" routeLength="4978.99" waitingTime="0.00" waitingCount="0" stopTime="0.00" timeLoss="18.09" rerouteNo="0" devices="tripinfo_CVToC.17 routing_CVToC.17 ssm_CVToC.17 toc_CVToC.17 driverstateCVToC.17" vType="vehLVOS223" speedFactor="1.09" vaporized=""/>
    <tripinfo id="CAVToC.10" depart="53.20" departLane="entry_1" departPos="91.12" departSpeed="29.88" departDelay="10.40" arrival="205.20" arrivalLane="e0_0" arrivalPos="4800.00" arrivalSpeed="33.46" duration="152.00" routeLength="4908.88" waitingTime="0.00" waitingCount="0" stopTime="0.00" timeLoss="6.03" rerouteNo="0" devices="tripinfo_CAVToC.10 routing_CAVToC.10 ssm_CAVToC.10 toc_CAVToC.10 driverstateCAVToC.10" vType="vehLVOS545" speedFactor="0.93" vaporized=""/>
    <tripinfo id="LV.18" depart="60.20" departLane="entry_1" departPos="9.78" departSpeed="34.86" departDelay="9.40" arrival="206.70" arrivalLane="e0_0" arrivalPos="4800.00" arrivalSpeed="34.82" duration="146.50" routeLength="4990.22" waitingTime="0.00" waitingCount="0" stopTime="0.00" timeLoss="3.26" rerouteNo="0" devices="tripinfo_LV.18 routing_LV.18 ssm_LV.18" vType="vehLVOS769" speedFactor="0.97" vaporized=""/>
    <tripinfo id="LV.5" depart="18.20" departLane="entry_0" departPos="70.00" departSpeed="35.33" departDelay="0.20" arrival="208.00" arrivalLane="e0_0" arrivalPos="4800.00" arrivalSpeed="35.27" duration="189.80" routeLength="4930.00" waitingTime="0.00" waitingCount="0" stopTime="0.00" timeLoss="50.18" rerouteNo="0" devices="tripinfo_LV.5 routing_LV.5 ssm_LV.5" vType="vehLVOS488" speedFactor="0.98" vaporized=""/>
    <tripinfo id="LV.7" depart="20.00" departLane="entry_0" departPos="41.03" departSpeed="29.79" departDelay="0.20" arrival="218.40" arrivalLane="e0_0" arrivalPos="4800.00" arrivalSpeed="29.63" duration="198.40" routeLength="4958.97" waitingTime="0.00" waitingCount="0" stopTime="0.00" timeLoss="31.91" rerouteNo="0" devices="tripinfo_LV.7 routing_LV.7 ssm_LV.7" vType="vehLVOS513" speedFactor="0.82" vaporized=""/>
    <tripinfo id="LV.12" depart="36.80" departLane="entry_0" departPos="12.34" departSpeed="30.97" departDelay="2.30" arrival="218.50" arrivalLane="e0_1" arrivalPos="4800.00" arrivalSpeed="30.93" duration="181.70" routeLength="4987.66" waitingTime="0.00" waitingCount="0" stopTime="0.00" timeLoss="20.57" rerouteNo="0" devices="tripinfo_LV.12 routing_LV.12 ssm_LV.12" vType="vehLVOS625" speedFactor="0.86" vaporized=""/>
    <tripinfo id="LV.17" depart="63.20" departLane="entry_1" departPos="33.29" departSpeed="33.20" departDelay="12.70" arrival="220.40" arrivalLane="e0_1" arrivalPos="4800.00" arrivalSpeed="32.70" duration="157.20" routeLength="4966.71" waitingTime="0.00" waitingCount="0" stopTime="0.00" timeLoss="7.56" rerouteNo="0" devices="tripinfo_LV.17 routing_LV.17 ssm_LV.17" vType="vehLVOS397" speedFactor="0.92" vaporized=""/>
    <tripinfo id="LV.11" depart="67.70" departLane="entry_1" departPos="0.61" departSpeed="47.54" departDelay="36.90" arrival="221.40" arrivalLane="e0_1" arrivalPos="4800.00" arrivalSpeed="33.44" duration="153.70" routeLength="4999.39" waitingTime="0.00" waitingCount="0" stopTime="0.00" timeLoss="48.54" rerouteNo="0" devices="tripinfo_LV.11 routing_LV.11 ssm_LV.11" vType="vehLVOS233" speedFactor="1.32" vaporized=""/>
    <tripinfo id="LV.16" depart="68.40" departLane="entry_1" departPos="13.36" departSpeed="37.44" departDelay="18.60" arrival="224.50" arrivalLane="e0_1" arrivalPos="4800.00" arrivalSpeed="35.33" duration="156.10" routeLength="4986.64" waitingTime="0.00" waitingCount="0" stopTime="0.00" timeLoss="22.82" rerouteNo="0" devices="tripinfo_LV.16 routing_LV.16 ssm_LV.16" vType="vehLVOS918" speedFactor="1.04" vaporized=""/>
    <tripinfo id="CAVToC.17" depart="62.20" departLane="entry_0" departPos="81.67" departSpeed="25.50" departDelay="5.50" arrival="226.30" arrivalLane="e0_1" arrivalPos="4800.00" arrivalSpeed="36.83" duration="164.10" routeLength="4918.33" waitingTime="0.00" waitingCount="0" stopTime="0.00" timeLoss="34.68" rerouteNo="0" devices="tripinfo_CAVToC.17 routing_CAVToC.17 ssm_CAVToC.17 toc_CAVToC.17 driverstateCAVToC.17" vType="vehLVOS456" speedFactor="1.05" vaporized=""/>
    <tripinfo id="CAVToC.16" depart="72.50" departLane="entry_1" departPos="3.33" departSpeed="32.50" departDelay="18.60" arrival="227.90" arrivalLane="e0_1" arrivalPos="4800.00" arrivalSpeed="36.69" duration="155.40" routeLength="4996.67" waitingTime="0.00" waitingCount="0" stopTime="0.00" timeLoss="21.18" rerouteNo="0" devices="tripinfo_CAVToC.16 routing_CAVToC.16 ssm_CAVToC.16 toc_CAVToC.16 driverstateCAVToC.16" vType="vehLVOS412" speedFactor="1.03" vaporized=""/>
    <tripinfo id="CAVToC.18" depart="74.60" departLane="entry_1" departPos="1.22" departSpeed="32.58" departDelay="16.50" arrival="230.20" arrivalLane="e0_0" arrivalPos="4800.00" arrivalSpeed="33.25" duration="155.60" routeLength="4998.78" waitingTime="0.00" waitingCount="0" stopTime="0.00" timeLoss="5.27" rerouteNo="0" devices="tripinfo_CAVToC.18 routing_CAVToC.18 ssm_CAVToC.18 toc_CAVToC.18 driverstateCAVToC.18" vType="vehLVOS236" speedFactor="0.92" vaporized=""/>
    <tripinfo id="LV.19" depart="76.50" departLane="entry_1" departPos="14.70" departSpeed="33.58" departDelay="22.00" arrival="231.20" arrivalLane="e0_1" arrivalPos="4800.00" arrivalSpeed="33.55" duration="154.70" routeLength="4985.30" waitingTime="0.00" waitingCount="0" stopTime="0.00" timeLoss="6.20" rerouteNo="0" devices="tripinfo_LV.19 routing_LV.19 ssm_LV.19" vType="vehLVOS766" speedFactor="0.93" vaporized=""/>
    <tripinfo id="CVToC.22" depart="72.70" departLane="entry_0" departPos="2.98" departSpeed="24.69" departDelay="15.10" arrival="232.50" arrivalLane="e0_1" arrivalPos="4800.00" arrivalSpeed="35.39" duration="159.80" routeLength="4997.02" waitingTime="0.00" waitingCount="0" stopTime="0.00" timeLoss="30.03" rerouteNo="0" devices="tripinfo_CVToC.22 routing_CVToC.22 ssm_CVToC.22 toc_CVToC.22 driverstateCVToC.22" vType="vehLVOS989" speedFactor="1.07" vaporized=""/>
    <tripinfo id="CVToC.24" depart="80.00" departLane="entry_0" departPos="6.85" departSpeed="24.72" departDelay="19.70" arrival="235.80" arrivalLane="e0_1" arrivalPos="4800.00" arrivalSpeed="37.58" duration="155.80" routeLength="4993.15" waitingTime="0.00" waitingCount="0" stopTime="0.00" timeLoss="26.30" rerouteNo="0" devices="tripinfo_CVToC.24 routing_CVToC.24 ssm_CVToC.24 toc_CVToC.24 driverstateCVToC.24" vType="vehLVOS919" speedFactor="1.07" vaporized=""/>
    <tripinfo id="LV.2" depart="10.20" departLane="entry_1" departPos="68.24" departSpeed="21.84" departDelay="0.00" arrival="236.20" arrivalLane="e0_0" arrivalPos="4800.00" arrivalSpeed="21.82" duration="226.00" routeLength="4931.76" waitingTime="0.00" waitingCount="0" stopTime="0.00" timeLoss="0.22" rerouteNo="0" devices="tripinfo_LV.2 routing_LV.2 ssm_LV.2" vType="vehLVOS719" speedFactor="0.60" vaporized=""/>
    <tripinfo id="CAVToC.20" depart="86.60" departLane="entry_1" departPos="103.27" departSpeed="28.18" departDelay="25.50" arrival="237.30" arrivalLane="e0_1" arrivalPos="4800.00" arrivalSpeed="33.75" duration="150.70" routeLength="4896.73" waitingTime="0.00" waitingCount="0" stopTime="0.00" timeLoss="5.58" rerouteNo="0" devices="tripinfo_CAVToC.20 routing_CAVToC.20 ssm_CAVToC.20 toc_CAVToC.20 driverstateCAVToC.20" vType="vehLVOS621" speedFactor="0.93" vaporized=""/>
    <tripinfo id="CVToC.5" depart="13.90" departLane="entry_0" departPos="66.69" departSpeed="33.44" departDelay="0.20" arrival="238.00" arrivalLane="e0_0" arrivalPos="4800.00" arrivalSpeed="23.65" duration="224.10" routeLength="4933.31" waitingTime="0.00" waitingCount="0" stopTime="0.00" timeLoss="93.58" rerouteNo="0" devices="tripinfo_CVToC.5 routing_CVToC.5 ssm_CVToC.5 toc_CVToC.5 driverstateCVToC.5" vType="vehLVOS998" speedFactor="1.05" vaporized=""/>
    <tripinfo id="CAVToC.22" depart="87.50" departLane="entry_1" departPos="51.61" departSpeed="29.26" departDelay="21.10" arrival="238.70" arrivalLane="e0_1" arrivalPos="4800.00" arrivalSpeed="36.02" duration="151.20" routeLength="4948.39" waitingTime="0.00" waitingCount="0" stopTime="0.00" timeLoss="17.80" rerouteNo="0" devices="tripinfo_CAVToC.22 routing_CAVToC.22 ssm_CAVToC.22 toc_CAVToC.22 driverstateCAVToC.22" vType="vehLVOS17" speedFactor="1.03" vaporized=""/>
    <tripinfo id="CAVToC.3" depart="19.70" departLane="entry_0" departPos="40.71" departSpeed="32.20" departDelay="0.00" arrival="239.00" arrivalLane="e0_0" arrivalPos="4800.00" arrivalSpeed="24.50" duration="219.30" routeLength="4959.29" waitingTime="0.00" waitingCount="0" stopTime="0.00" timeLoss="85.75" rerouteNo="0" devices="tripinfo_CAVToC.3 routing_CAVToC.3 ssm_CAVToC.3 toc_CAVToC.3 driverstateCAVToC.3" vType="vehLVOS517" speedFactor="1.03" vaporized=""/>
    <tripinfo id="LV.22" depart="90.20" departLane="entry_0" departPos="73.26" departSpeed="41.03" departDelay="27.00" arrival="240.50" arrivalLane="e0_1" arrivalPos="4800.00" arrivalSpeed="37.48" duration="150.30" routeLength="4926.74" waitingTime="0.00" waitingCount="0" stopTime="0.00" timeLoss="30.21" rerouteNo="0" devices="tripinfo_LV.22 routing_LV.22 ssm_LV.22" vType="vehLVOS974" speedFactor="1.14" vaporized=""/>
    <tripinfo id="CAVToC.4" depart="24.20" departLane="entry_0" departPos="3.07" departSpeed="32.83" departDelay="3.80" arrival="240.60" arrivalLane="e0_0" arrivalPos="4800.00" arrivalSpeed="25.55" duration="216.40" routeLength="4996.93" waitingTime="0.00" waitingCount="0" stopTime="0.00" timeLoss="64.78" rerouteNo="0" devices="tripinfo_CAVToC.4 routing_CAVToC.4 ssm_CAVToC.4 toc_CAVToC.4 driverstateCAVToC.4" vType="vehLVOS975" speedFactor="0.91" vaporized=""/>
    <tripinfo id="CAVToC.21" depart="89.30" departLane="entry_1" departPos="28.03" departSpeed="29.98" departDelay="27.60" arrival="241.60" arrivalLane="e0_1" arrivalPos="4800.00" arrivalSpeed="34.52" duration="152.30" routeLength="4971.97" waitingTime="0.00" waitingCount="0" stopTime="0.00" timeLoss="8.25" rerouteNo="0" devices="tripinfo_CAVToC.21 routing_CAVToC.21 ssm_CAVToC.21 toc_CAVToC.21 driverstateCAVToC.21" vType="vehLVOS448" speedFactor="0.96" vaporized=""/>
    <tripinfo id="CVToC.9" depart="27.10" departLane="entry_0" departPos="5.40" departSpeed="30.59" departDelay="2.30" arrival="241.80" arrivalLane="e0_0" arrivalPos="4800.00" arrivalSpeed="27.47" duration="214.70" routeLength="4994.60" waitingTime="0.00" waitingCount="0" stopTime="0.00" timeLoss="88.61" rerouteNo="0" devices="tripinfo_CVToC.9 routing_CVToC.9 ssm_CVToC.9 toc_CVToC.9 driverstateCVToC.9" vType="vehLVOS45" speedFactor="1.10" vaporized=""/>
    <tripinfo id="CVToC.11" depart="30.80" departLane="entry_0" departPos="41.13" departSpeed="26.88" departDelay="0.70" arrival="243.00" arrivalLane="e0_0" arrivalPos="4800.00" arrivalSpeed="27.22" duration="212.20" routeLength="4958.87" waitingTime="0.00" waitingCount="0" stopTime="0.00" timeLoss="57.53" rerouteNo="0" devices="tripinfo_CVToC.11 routing_CVToC.11 ssm_CVToC.11 toc_CVToC.11 driverstateCVToC.11" vType="vehLVOS401" speedFactor="0.89" vaporized=""/>
    <tripinfo id="CVToC.27" depart="97.40" departLane="entry_1" departPos="104.95" departSpeed="27.87" departDelay="28.20" arrival="244.70" arrivalLane="e0_1" arrivalPos="4800.00" arrivalSpeed="37.19" duration="147.30" routeLength="4895.05" waitingTime="0.00" waitingCount="0" stopTime="0.00" timeLoss="30.69" rerouteNo="0" devices="tripinfo_CVToC.27 routing_CVToC.27 ssm_CVToC.27 toc_CVToC.27 driverstateCVToC.27" vType="vehLVOS699" speedFactor="1.16" vaporized=""/>
    <tripinfo id="CAVToC.6" depart="34.80" departLane="entry_0" departPos="48.50" departSpeed="25.47" departDelay="1.20" arrival="244.90" arrivalLane="e0_0" arrivalPos="4800.00" arrivalSpeed="27.19" duration="210.10" routeLength="4951.50" waitingTime="0.00" waitingCount="0" stopTime="0.00" timeLoss="98.01" rerouteNo="0" devices="tripinfo_CAVToC.6 routing_CAVToC.6 ssm_CAVToC.6 toc_CAVToC.6 driverstateCAVToC.6" vType="vehLVOS299" speedFactor="1.22" vaporized=""/>
    <tripinfo id="LV.14" depart="106.40" departLane="entry_1" departPos="8.97" departSpeed="43.01" departDelay="65.20" arrival="245.50" arrivalLane="e0_1" arrivalPos="4800.00" arrivalSpeed="38.08" duration="139.10" routeLength="4991.03" waitingTime="0.00" waitingCount="0" stopTime="0.00" timeLoss="22.98" rerouteNo="0" devices="tripinfo_LV.14 routing_LV.14 ssm_LV.14" vType="vehLVOS310" speedFactor="1.19" vaporized=""/>
    <tripinfo id="CAVToC.8" depart="41.00" departLane="entry_0" departPos="53.79" departSpeed="27.45" departDelay="0.50" arrival="246.10" arrivalLane="e0_0" arrivalPos="4800.00" arrivalSpeed="28.62" duration="205.10" routeLength="4946.21" waitingTime="0.00" waitingCount="0" stopTime="0.00" timeLoss="61.06" rerouteNo="0" devices="tripinfo_CAVToC.8 routing_CAVToC.8 ssm_CAVToC.8 toc_CAVToC.8 driverstateCAVToC.8" vType="vehLVOS848" speedFactor="0.95" vaporized=""/>
    <tripinfo id="CAVToC.9" depart="41.60" departLane="entry_0" departPos="0.03" departSpeed="27.06" departDelay="0.00" arrival="247.70" arrivalLane="e0_0" arrivalPos="4800.00" arrivalSpeed="29.44" duration="206.10" routeLength="4999.97" waitingTime="0.00" waitingCount="0" stopTime="0.00" timeLoss="48.91" rerouteNo="0" devices="tripinfo_CAVToC.9 routing_CAVToC.9 ssm_CAVToC.9 toc_CAVToC.9 driverstateCAVToC.9" vType="vehLVOS461" speedFactor="0.88" vaporized=""/>
    <tripinfo id="LV.23" depart="90.20" departLane="entry_0" departPos="65.66" departSpeed="32.57" departDelay="25.10" arrival="248.60" arrivalLane="e0_1" arrivalPos="4800.00" arrivalSpeed="32.54" duration="158.40" routeLength="4934.34" waitingTime="0.00" waitingCount="0" stopTime="0.00" timeLoss="6.80" rerouteNo="0" devices="tripinfo_LV.23 routing_LV.23 ssm_LV.23" vType="vehLVOS933" speedFactor="0.90" vaporized=""/>
    <tripinfo id="CVToC.16" depart="58.60" departLane="entry_1" departPos="109.29" departSpeed="30.36" departDelay="12.20" arrival="248.70" arrivalLane="e0_0" arrivalPos="4800.00" arrivalSpeed="27.75" duration="190.10" routeLength="4890.71" waitingTime="0.00" waitingCount="0" stopTime="0.00" timeLoss="28.97" rerouteNo="0" devices="tripinfo_CVToC.16 routing_CVToC.16 ssm_CVToC.16 toc_CVToC.16 driverstateCVToC.16" vType="vehLVOS146" speedFactor="0.84" vaporized=""/>
    <tripinfo id="CAVToC.23" depart="108.90" departLane="entry_1" departPos="36.16" departSpeed="35.97" departDelay="41.50" arrival="250.00" arrivalLane="e0_1" arrivalPos="4800.00" arrivalSpeed="35.61" duration="141.10" routeLength="4963.84" waitingTime="0.00" waitingCount="0" stopTime="0.00" timeLoss="3.03" rerouteNo="0" devices="tripinfo_CAVToC.23 routing_CAVToC.23 ssm_CAVToC.23 toc_CAVToC.23 driverstateCAVToC.23" vType="vehLVOS620" speedFactor="1.00" vaporized=""/>
    <tripinfo id="CAVToC.12" depart="49.30" departLane="entry_0" departPos="22.37" departSpeed="34.51" departDelay="6.10" arrival="250.60" arrivalLane="e0_0" arrivalPos="4800.00" arrivalSpeed="28.12" duration="201.30" routeLength="4977.63" waitingTime="0.00" waitingCount="0" stopTime="0.00" timeLoss="76.68" rerouteNo="0" devices="tripinfo_CAVToC.12 routing_CAVToC.12 ssm_CAVToC.12 toc_CAVToC.12 driverstateCAVToC.12" vType="vehLVOS435" speedFactor="1.11" vaporized=""/>