<?xml version="1.0" encoding="UTF-8"?>

<!-- generated on Thu Aug 27 10:56:47 2020 by Eclipse SUMO sumo Version v1_6_0+1341-81c8bfe906
<configuration xmlns:xsi="http://www.w3.org/2001/XMLSchema-instance" xsi:noNamespaceSchemaLocation="http://sumo.dlr.de/xsd/sumoConfiguration.xsd">

    <input>
        <net-file value="scenario/UC5_1.net.xml"/>
        <route-files value="scenario/routes_trafficMix_0_trafficDemand_1_driverBehaviour_OS_seed_0.xml"/>
        <additional-files value="scenario/additionalsOutput_trafficMix_0_trafficDemand_1_driverBehaviour_OS_seed_0.xml,scenario/vTypesCAVToC_OS.add.xml,scenario/vTypesCVToC_OS.add.xml,scenario/vTypesLV_OS.add.xml,scenario/shapes.add.xml,scenario/view.add.xml"/>
    </input>

    <output>
        <tripinfo-output value="/home/anoulis/workspace/tor-distribution/outputs/simulations/DQN__2020-08-26_22-11-43__20200827-094847/tripinfo_10.xml"/>
    </output>

    <time>
        <step-length value="0.1"/>
    </time>

    <processing>
        <step-method.ballistic value="true"/>
        <ignore-route-errors value="true"/>
        <lanechange.duration value="2.5"/>
    </processing>

    <report>
        <no-step-log value="true"/>
    </report>

    <toc_device>
        <device.toc.ogNewTimeHeadway value="100"/>
        <device.toc.ogNewSpaceHeadway value="5"/>
        <device.toc.ogMaxDecel value="1"/>
        <device.toc.ogChangeRate value="1"/>
    </toc_device>

    <traci_server>
        <remote-port value="49419"/>
    </traci_server>

    <random_number>
        <seed value="1034"/>
    </random_number>

    <gui_only>
        <tracker-interval value="0.1"/>
    </gui_only>

</configuration>
-->

<tripinfos xmlns:xsi="http://www.w3.org/2001/XMLSchema-instance" xsi:noNamespaceSchemaLocation="http://sumo.dlr.de/xsd/tripinfo_file.xsd">
    <tripinfo id="CAVToC.0" depart="0.40" departLane="entry_1" departPos="199.90" departSpeed="38.23" departDelay="0.00" arrival="126.00" arrivalLane="e0_0" arrivalPos="4800.00" arrivalSpeed="38.23" duration="125.60" routeLength="4800.10" waitingTime="0.00" waitingCount="0" stopTime="0.00" timeLoss="0.00" rerouteNo="0" devices="tripinfo_CAVToC.0 routing_CAVToC.0 ssm_CAVToC.0 toc_CAVToC.0 driverstateCAVToC.0" vType="vehLVOS19" speedFactor="1.06" vaporized=""/>
    <tripinfo id="LV.0" depart="0.30" departLane="entry_0" departPos="199.90" departSpeed="37.20" departDelay="0.00" arrival="129.40" arrivalLane="e0_0" arrivalPos="4800.00" arrivalSpeed="37.18" duration="129.10" routeLength="4800.10" waitingTime="0.00" waitingCount="0" stopTime="0.00" timeLoss="0.07" rerouteNo="0" devices="tripinfo_LV.0 routing_LV.0 ssm_LV.0" vType="vehLVOS597" speedFactor="1.03" vaporized=""/>
    <tripinfo id="CVToC.1" depart="5.10" departLane="entry_1" departPos="5.56" departSpeed="35.37" departDelay="1.00" arrival="132.00" arrivalLane="e0_1" arrivalPos="4800.00" arrivalSpeed="45.33" duration="126.90" routeLength="4994.44" waitingTime="0.00" waitingCount="0" stopTime="0.00" timeLoss="16.80" rerouteNo="0" devices="tripinfo_CVToC.1 routing_CVToC.1 ssm_CVToC.1 toc_CVToC.1 driverstateCVToC.1" vType="vehLVOS77" speedFactor="1.26" vaporized=""/>
    <tripinfo id="LV.1" depart="2.50" departLane="entry_0" departPos="86.22" departSpeed="42.96" departDelay="0.00" arrival="134.80" arrivalLane="e0_1" arrivalPos="4800.00" arrivalSpeed="42.83" duration="132.30" routeLength="4913.78" waitingTime="0.00" waitingCount="0" stopTime="0.00" timeLoss="17.83" rerouteNo="0" devices="tripinfo_LV.1 routing_LV.1 ssm_LV.1" vType="vehLVOS538" speedFactor="1.19" vaporized=""/>
    <tripinfo id="LV.2" depart="2.60" departLane="entry_0" departPos="12.74" departSpeed="38.13" departDelay="0.00" arrival="136.70" arrivalLane="e0_0" arrivalPos="4800.00" arrivalSpeed="38.09" duration="134.10" routeLength="4987.26" waitingTime="0.00" waitingCount="0" stopTime="0.00" timeLoss="3.25" rerouteNo="0" devices="tripinfo_LV.2 routing_LV.2 ssm_LV.2" vType="vehLVOS68" speedFactor="1.06" vaporized=""/>
    <tripinfo id="CVToC.2" depart="7.40" departLane="entry_1" departPos="2.63" departSpeed="35.44" departDelay="0.80" arrival="140.80" arrivalLane="e0_1" arrivalPos="4800.00" arrivalSpeed="37.74" duration="133.40" routeLength="4997.37" waitingTime="0.00" waitingCount="0" stopTime="0.00" timeLoss="1.08" rerouteNo="0" devices="tripinfo_CVToC.2 routing_CVToC.2 ssm_CVToC.2 toc_CVToC.2 driverstateCVToC.2" vType="vehLVOS697" speedFactor="1.05" vaporized=""/>
    <tripinfo id="CVToC.0" depart="1.60" departLane="entry_0" departPos="175.80" departSpeed="34.44" departDelay="0.00" arrival="142.10" arrivalLane="e0_0" arrivalPos="4800.00" arrivalSpeed="34.27" duration="140.50" routeLength="4824.20" waitingTime="0.00" waitingCount="0" stopTime="0.00" timeLoss="0.37" rerouteNo="0" devices="tripinfo_CVToC.0 routing_CVToC.0 ssm_CVToC.0 toc_CVToC.0 driverstateCVToC.0" vType="vehLVOS869" speedFactor="0.95" vaporized=""/>
    <tripinfo id="LV.3" depart="4.20" departLane="entry_0" departPos="22.95" departSpeed="37.17" departDelay="0.30" arrival="143.30" arrivalLane="e0_1" arrivalPos="4800.00" arrivalSpeed="37.17" duration="139.10" routeLength="4977.05" waitingTime="0.00" waitingCount="0" stopTime="0.00" timeLoss="5.18" rerouteNo="0" devices="tripinfo_LV.3 routing_LV.3 ssm_LV.3" vType="vehLVOS180" speedFactor="1.03" vaporized=""/>
    <tripinfo id="CAVToC.1" depart="0.70" departLane="entry_1" departPos="141.00" departSpeed="34.09" departDelay="0.00" arrival="145.50" arrivalLane="e0_0" arrivalPos="4800.00" arrivalSpeed="34.03" duration="144.80" routeLength="4859.00" waitingTime="0.00" waitingCount="0" stopTime="0.00" timeLoss="2.20" rerouteNo="0" devices="tripinfo_CAVToC.1 routing_CAVToC.1 ssm_CAVToC.1 toc_CAVToC.1 driverstateCAVToC.1" vType="vehLVOS85" speedFactor="0.94" vaporized=""/>
    <tripinfo id="CAVToC.2" depart="2.20" departLane="entry_1" departPos="120.38" departSpeed="33.71" departDelay="0.00" arrival="149.20" arrivalLane="e0_0" arrivalPos="4800.00" arrivalSpeed="33.70" duration="147.00" routeLength="4879.62" waitingTime="0.00" waitingCount="0" stopTime="0.00" timeLoss="2.20" rerouteNo="0" devices="tripinfo_CAVToC.2 routing_CAVToC.2 ssm_CAVToC.2 toc_CAVToC.2 driverstateCAVToC.2" vType="vehLVOS9" speedFactor="0.93" vaporized=""/>
    <tripinfo id="CAVToC.4" depart="8.30" departLane="entry_0" departPos="6.70" departSpeed="35.50" departDelay="0.10" arrival="151.40" arrivalLane="e0_1" arrivalPos="4800.00" arrivalSpeed="35.83" duration="143.10" routeLength="4993.30" waitingTime="0.00" waitingCount="0" stopTime="0.00" timeLoss="3.89" rerouteNo="0" devices="tripinfo_CAVToC.4 routing_CAVToC.4 ssm_CAVToC.4 toc_CAVToC.4 driverstateCAVToC.4" vType="vehLVOS139" speedFactor="0.99" vaporized=""/>
    <tripinfo id="CAVToC.3" depart="6.00" departLane="entry_0" departPos="1.79" departSpeed="35.63" departDelay="0.30" arrival="152.80" arrivalLane="e0_0" arrivalPos="4800.00" arrivalSpeed="37.33" duration="146.80" routeLength="4998.21" waitingTime="0.00" waitingCount="0" stopTime="0.00" timeLoss="19.04" rerouteNo="0" devices="tripinfo_CAVToC.3 routing_CAVToC.3 ssm_CAVToC.3 toc_CAVToC.3 driverstateCAVToC.3" vType="vehLVOS277" speedFactor="1.08" vaporized=""/>
    <tripinfo id="CAVToC.5" depart="9.60" departLane="entry_1" departPos="12.59" departSpeed="32.64" departDelay="1.20" arrival="164.90" arrivalLane="e0_1" arrivalPos="4800.00" arrivalSpeed="32.63" duration="155.30" routeLength="4987.41" waitingTime="0.00" waitingCount="0" stopTime="0.00" timeLoss="2.48" rerouteNo="0" devices="tripinfo_CAVToC.5 routing_CAVToC.5 ssm_CAVToC.5 toc_CAVToC.5 driverstateCAVToC.5" vType="vehLVOS491" speedFactor="0.90" vaporized=""/>
    <tripinfo id="CVToC.3" depart="10.40" departLane="entry_0" departPos="1.03" departSpeed="35.60" departDelay="1.90" arrival="165.90" arrivalLane="e0_0" arrivalPos="4800.00" arrivalSpeed="34.97" duration="155.50" routeLength="4998.97" waitingTime="0.00" waitingCount="0" stopTime="0.00" timeLoss="22.52" rerouteNo="0" devices="tripinfo_CVToC.3 routing_CVToC.3 ssm_CVToC.3 toc_CVToC.3 driverstateCVToC.3" vType="vehLVOS19" speedFactor="1.04" vaporized=""/>
    <tripinfo id="CAVToC.6" depart="11.90" departLane="entry_1" departPos="5.62" departSpeed="33.36" departDelay="3.20" arrival="165.90" arrivalLane="e0_1" arrivalPos="4800.00" arrivalSpeed="34.55" duration="154.00" routeLength="4994.38" waitingTime="0.00" waitingCount="0" stopTime="0.00" timeLoss="25.45" rerouteNo="0" devices="tripinfo_CAVToC.6 routing_CAVToC.6 ssm_CAVToC.6 toc_CAVToC.6 driverstateCAVToC.6" vType="vehLVOS168" speedFactor="1.08" vaporized=""/>
    <tripinfo id="CVToC.5" depart="12.70" departLane="entry_0" departPos="9.14" departSpeed="32.85" departDelay="2.00" arrival="166.80" arrivalLane="e0_1" arrivalPos="4800.00" arrivalSpeed="33.65" duration="154.10" routeLength="4990.86" waitingTime="0.00" waitingCount="0" stopTime="0.00" timeLoss="5.85" rerouteNo="0" devices="tripinfo_CVToC.5 routing_CVToC.5 ssm_CVToC.5 toc_CVToC.5 driverstateCVToC.5" vType="vehLVOS863" speedFactor="0.93" vaporized=""/>
    <tripinfo id="CVToC.6" depart="13.90" departLane="entry_1" departPos="11.65" departSpeed="29.80" departDelay="1.60" arrival="181.50" arrivalLane="e0_1" arrivalPos="4800.00" arrivalSpeed="29.80" duration="167.60" routeLength="4988.35" waitingTime="0.00" waitingCount="0" stopTime="0.00" timeLoss="0.21" rerouteNo="0" devices="tripinfo_CVToC.6 routing_CVToC.6 ssm_CVToC.6 toc_CVToC.6 driverstateCVToC.6" vType="vehLVOS853" speedFactor="0.83" vaporized=""/>
    <tripinfo id="CVToC.4" depart="14.90" departLane="entry_0" departPos="4.88" departSpeed="33.09" departDelay="5.60" arrival="183.10" arrivalLane="e0_0" arrivalPos="4800.00" arrivalSpeed="32.06" duration="168.20" routeLength="4995.12" waitingTime="0.00" waitingCount="0" stopTime="0.00" timeLoss="25.52" rerouteNo="0" devices="tripinfo_CVToC.4 routing_CVToC.4 ssm_CVToC.4 toc_CVToC.4 driverstateCVToC.4" vType="vehLVOS20" speedFactor="0.97" vaporized=""/>
    <tripinfo id="CAVToC.7" depart="16.30" departLane="entry_1" departPos="1.95" departSpeed="30.61" departDelay="1.00" arrival="183.10" arrivalLane="e0_1" arrivalPos="4800.00" arrivalSpeed="31.18" duration="166.80" routeLength="4998.05" waitingTime="0.00" waitingCount="0" stopTime="0.00" timeLoss="30.33" rerouteNo="0" devices="tripinfo_CAVToC.7 routing_CAVToC.7 ssm_CAVToC.7 toc_CAVToC.7 driverstateCAVToC.7" vType="vehLVOS224" speedFactor="1.01" vaporized=""/>
    <tripinfo id="CVToC.7" depart="17.50" departLane="entry_0" departPos="5.39" departSpeed="30.63" departDelay="1.90" arrival="185.40" arrivalLane="e0_0" arrivalPos="4800.00" arrivalSpeed="34.10" duration="167.90" routeLength="4994.61" waitingTime="0.00" waitingCount="0" stopTime="0.00" timeLoss="32.85" rerouteNo="0" devices="tripinfo_CVToC.7 routing_CVToC.7 ssm_CVToC.7 toc_CVToC.7 driverstateCVToC.7" vType="vehLVOS138" speedFactor="1.02" vaporized=""/>
    <tripinfo id="CVToC.8" depart="19.80" departLane="entry_1" departPos="32.70" departSpeed="30.92" departDelay="3.00" arrival="187.20" arrivalLane="e0_1" arrivalPos="4800.00" arrivalSpeed="34.09" duration="167.40" routeLength="4967.30" waitingTime="0.00" waitingCount="0" stopTime="0.00" timeLoss="21.69" rerouteNo="0" devices="tripinfo_CVToC.8 routing_CVToC.8 ssm_CVToC.8 toc_CVToC.8 driverstateCVToC.8" vType="vehLVOS986" speedFactor="0.94" vaporized=""/>
    <tripinfo id="CAVToC.9" depart="22.50" departLane="entry_1" departPos="29.57" departSpeed="31.76" departDelay="2.40" arrival="188.50" arrivalLane="e0_1" arrivalPos="4800.00" arrivalSpeed="35.10" duration="166.00" routeLength="4970.43" waitingTime="0.00" waitingCount="0" stopTime="0.00" timeLoss="41.13" rerouteNo="0" devices="tripinfo_CAVToC.9 routing_CAVToC.9 ssm_CAVToC.9 toc_CAVToC.9 driverstateCAVToC.9" vType="vehLVOS610" speedFactor="1.10" vaporized=""/>
    <tripinfo id="LV.6" depart="22.30" departLane="entry_0" departPos="1.16" departSpeed="37.17" departDelay="6.60" arrival="188.70" arrivalLane="e0_0" arrivalPos="4800.00" arrivalSpeed="35.56" duration="166.40" routeLength="4998.84" waitingTime="0.00" waitingCount="0" stopTime="0.00" timeLoss="31.83" rerouteNo="0" devices="tripinfo_LV.6 routing_LV.6 ssm_LV.6" vType="vehLVOS298" speedFactor="1.03" vaporized=""/>
    <tripinfo id="CAVToC.8" depart="24.50" departLane="entry_1" departPos="2.30" departSpeed="32.73" departDelay="7.60" arrival="189.70" arrivalLane="e0_1" arrivalPos="4800.00" arrivalSpeed="37.18" duration="165.20" routeLength="4997.70" waitingTime="0.00" waitingCount="0" stopTime="0.00" timeLoss="48.70" rerouteNo="0" devices="tripinfo_CAVToC.8 routing_CAVToC.8 ssm_CAVToC.8 toc_CAVToC.8 driverstateCAVToC.8" vType="vehLVOS768" speedFactor="1.19" vaporized=""/>
    <tripinfo id="LV.5" depart="27.20" departLane="entry_0" departPos="2.77" departSpeed="40.06" departDelay="13.00" arrival="190.60" arrivalLane="e0_0" arrivalPos="4800.00" arrivalSpeed="38.01" duration="163.40" routeLength="4997.23" waitingTime="0.00" waitingCount="0" stopTime="0.00" timeLoss="38.60" rerouteNo="0" devices="tripinfo_LV.5 routing_LV.5 ssm_LV.5" vType="vehLVOS198" speedFactor="1.11" vaporized=""/>
    <tripinfo id="CVToC.9" depart="27.10" departLane="entry_1" departPos="5.64" departSpeed="32.00" departDelay="0.00" arrival="191.00" arrivalLane="e0_1" arrivalPos="4800.00" arrivalSpeed="35.70" duration="163.90" routeLength="4994.36" waitingTime="0.00" waitingCount="0" stopTime="0.00" timeLoss="25.17" rerouteNo="0" devices="tripinfo_CVToC.9 routing_CVToC.9 ssm_CVToC.9 toc_CVToC.9 driverstateCVToC.9" vType="vehLVOS477" speedFactor="1.00" vaporized=""/>
    <tripinfo id="CAVToC.11" depart="29.30" departLane="entry_0" departPos="4.47" departSpeed="34.29" departDelay="1.30" arrival="192.30" arrivalLane="e0_0" arrivalPos="4800.00" arrivalSpeed="35.04" duration="163.00" routeLength="4995.53" waitingTime="0.00" waitingCount="0" stopTime="0.00" timeLoss="20.97" rerouteNo="0" devices="tripinfo_CAVToC.11 routing_CAVToC.11 ssm_CAVToC.11 toc_CAVToC.11 driverstateCAVToC.11" vType="vehLVOS892" speedFactor="0.97" vaporized=""/>
    <tripinfo id="CAVToC.10" depart="29.90" departLane="entry_1" departPos="13.72" departSpeed="30.27" departDelay="3.10" arrival="192.50" arrivalLane="e0_1" arrivalPos="4800.00" arrivalSpeed="35.17" duration="162.60" routeLength="4986.28" waitingTime="0.00" waitingCount="0" stopTime="0.00" timeLoss="20.94" rerouteNo="0" devices="tripinfo_CAVToC.10 routing_CAVToC.10 ssm_CAVToC.10 toc_CAVToC.10 driverstateCAVToC.10" vType="vehLVOS914" speedFactor="0.98" vaporized=""/>
    <tripinfo id="CAVToC.13" depart="32.40" departLane="entry_1" departPos="2.59" departSpeed="29.82" departDelay="0.80" arrival="193.80" arrivalLane="e0_1" arrivalPos="4800.00" arrivalSpeed="37.96" duration="161.40" routeLength="4997.41" waitingTime="0.00" waitingCount="0" stopTime="0.00" timeLoss="37.77" rerouteNo="0" devices="tripinfo_CAVToC.13 routing_CAVToC.13 ssm_CAVToC.13 toc_CAVToC.13 driverstateCAVToC.13" vType="vehLVOS292" speedFactor="1.12" vaporized=""/>
    <tripinfo id="LV.7" depart="36.60" departLane="entry_0" departPos="3.80" departSpeed="40.43" departDelay="10.20" arrival="194.50" arrivalLane="e0_0" arrivalPos="4800.00" arrivalSpeed="38.12" duration="157.90" routeLength="4996.20" waitingTime="0.00" waitingCount="0" stopTime="0.00" timeLoss="34.25" rerouteNo="0" devices="tripinfo_LV.7 routing_LV.7 ssm_LV.7" vType="vehLVOS383" speedFactor="1.12" vaporized=""/>
    <tripinfo id="CAVToC.14" depart="37.60" departLane="entry_1" departPos="3.45" departSpeed="28.95" departDelay="4.50" arrival="195.10" arrivalLane="e0_1" arrivalPos="4800.00" arrivalSpeed="37.75" duration="157.50" routeLength="4996.55" waitingTime="0.00" waitingCount="0" stopTime="0.00" timeLoss="25.38" rerouteNo="0" devices="tripinfo_CAVToC.14 routing_CAVToC.14 ssm_CAVToC.14 toc_CAVToC.14 driverstateCAVToC.14" vType="vehLVOS271" speedFactor="1.05" vaporized=""/>
    <tripinfo id="CVToC.11" depart="43.50" departLane="entry_1" departPos="4.77" departSpeed="26.68" departDelay="11.40" arrival="196.40" arrivalLane="e0_1" arrivalPos="4800.00" arrivalSpeed="37.27" duration="152.90" routeLength="4995.23" waitingTime="0.00" waitingCount="0" stopTime="0.00" timeLoss="18.99" rerouteNo="0" devices="tripinfo_CVToC.11 routing_CVToC.11 ssm_CVToC.11 toc_CVToC.11 driverstateCVToC.11" vType="vehLVOS842" speedFactor="1.03" vaporized=""/>
    <tripinfo id="CVToC.10" depart="40.50" departLane="entry_1" departPos="0.22" departSpeed="29.02" departDelay="9.70" arrival="196.70" arrivalLane="e0_0" arrivalPos="4800.00" arrivalSpeed="38.01" duration="156.20" routeLength="4999.78" waitingTime="0.00" waitingCount="0" stopTime="0.00" timeLoss="26.34" rerouteNo="0" devices="tripinfo_CVToC.10 routing_CVToC.10 ssm_CVToC.10 toc_CVToC.10 driverstateCVToC.10" vType="vehLVOS51" speedFactor="1.07" vaporized=""/>
    <tripinfo id="CVToC.14" depart="47.10" departLane="entry_1" departPos="15.69" departSpeed="26.33" departDelay="11.20" arrival="198.70" arrivalLane="e0_1" arrivalPos="4800.00" arrivalSpeed="36.53" duration="151.60" routeLength="4984.31" waitingTime="0.00" waitingCount="0" stopTime="0.00" timeLoss="15.19" rerouteNo="0" devices="tripinfo_CVToC.14 routing_CVToC.14 ssm_CVToC.14 toc_CVToC.14 driverstateCVToC.14" vType="vehLVOS95" speedFactor="1.01" vaporized=""/>
    <tripinfo id="CVToC.13" depart="44.00" departLane="entry_0" departPos="1.03" departSpeed="26.16" departDelay="9.90" arrival="199.40" arrivalLane="e0_0" arrivalPos="4800.00" arrivalSpeed="37.91" duration="155.40" routeLength="4998.97" waitingTime="0.00" waitingCount="0" stopTime="0.00" timeLoss="23.70" rerouteNo="0" devices="tripinfo_CVToC.13 routing_CVToC.13 ssm_CVToC.13 toc_CVToC.13 driverstateCVToC.13" vType="vehLVOS666" speedFactor="1.05" vaporized=""/>
    <tripinfo id="CAVToC.17" depart="41.00" departLane="entry_0" departPos="2.27" departSpeed="28.31" departDelay="2.80" arrival="199.90" arrivalLane="e0_1" arrivalPos="4800.00" arrivalSpeed="34.28" duration="158.90" routeLength="4997.73" waitingTime="0.00" waitingCount="0" stopTime="0.00" timeLoss="13.93" rerouteNo="0" devices="tripinfo_CAVToC.17 routing_CAVToC.17 ssm_CAVToC.17 toc_CAVToC.17 driverstateCAVToC.17" vType="vehLVOS13" speedFactor="0.96" vaporized=""/>
    <tripinfo id="CVToC.12" depart="38.60" departLane="entry_0" departPos="4.19" departSpeed="32.71" departDelay="6.10" arrival="202.60" arrivalLane="e0_1" arrivalPos="4800.00" arrivalSpeed="35.06" duration="164.00" routeLength="4995.81" waitingTime="0.00" waitingCount="0" stopTime="0.00" timeLoss="21.74" rerouteNo="0" devices="tripinfo_CVToC.12 routing_CVToC.12 ssm_CVToC.12 toc_CVToC.12 driverstateCVToC.12" vType="vehLVOS461" speedFactor="0.97" vaporized=""/>
    <tripinfo id="CAVToC.15" depart="35.50" departLane="entry_1" departPos="28.18" departSpeed="28.23" departDelay="0.70" arrival="202.90" arrivalLane="e0_0" arrivalPos="4800.00" arrivalSpeed="30.28" duration="167.40" routeLength="4971.82" waitingTime="0.00" waitingCount="0" stopTime="0.00" timeLoss="3.42" rerouteNo="0" devices="tripinfo_CAVToC.15 routing_CAVToC.15 ssm_CAVToC.15 toc_CAVToC.15 driverstateCAVToC.15" vType="vehLVOS235" speedFactor="0.84" vaporized=""/>
    <tripinfo id="CAVToC.12" depart="31.90" departLane="entry_0" departPos="14.99" departSpeed="29.76" departDelay="2.30" arrival="204.80" arrivalLane="e0_0" arrivalPos="4800.00" arrivalSpeed="34.32" duration="172.90" routeLength="4985.01" waitingTime="0.00" waitingCount="0" stopTime="0.00" timeLoss="27.80" rerouteNo="0" devices="tripinfo_CAVToC.12 routing_CAVToC.12 ssm_CAVToC.12 toc_CAVToC.12 driverstateCAVToC.12" vType="vehLVOS374" speedFactor="0.95" vaporized=""/>
    <tripinfo id="LV.11" depart="47.50" departLane="entry_0" departPos="1.72" departSpeed="32.80" departDelay="2.90" arrival="206.00" arrivalLane="e0_0" arrivalPos="4800.00" arrivalSpeed="32.70" duration="158.50" routeLength="4998.28" waitingTime="0.00" waitingCount="0" stopTime="0.00" timeLoss="6.05" rerouteNo="0" devices="tripinfo_LV.11 routing_LV.11 ssm_LV.11" vType="vehLVOS731" speedFactor="0.91" vaporized=""/>
    <tripinfo id="CAVToC.16" depart="49.70" departLane="entry_1" departPos="9.01" departSpeed="26.14" departDelay="11.60" arrival="210.10" arrivalLane="e0_0" arrivalPos="4800.00" arrivalSpeed="33.46" duration="160.40" routeLength="4990.99" waitingTime="0.00" waitingCount="0" stopTime="0.00" timeLoss="11.41" rerouteNo="0" devices="tripinfo_CAVToC.16 routing_CAVToC.16 ssm_CAVToC.16 toc_CAVToC.16 driverstateCAVToC.16" vType="vehLVOS961" speedFactor="0.93" vaporized=""/>
    <tripinfo id="CVToC.15" depart="53.70" departLane="entry_1" departPos="36.49" departSpeed="26.59" departDelay="9.10" arrival="211.90" arrivalLane="e0_1" arrivalPos="4800.00" arrivalSpeed="33.31" duration="158.20" routeLength="4963.51" waitingTime="0.00" waitingCount="0" stopTime="0.00" timeLoss="9.16" rerouteNo="0" devices="tripinfo_CVToC.15 routing_CVToC.15 ssm_CVToC.15 toc_CVToC.15 driverstateCVToC.15" vType="vehLVOS719" speedFactor="0.92" vaporized=""/>
    <tripinfo id="CVToC.17" depart="51.60" departLane="entry_0" departPos="29.17" departSpeed="26.13" departDelay="5.70" arrival="212.40" arrivalLane="e0_0" arrivalPos="4800.00" arrivalSpeed="34.22" duration="160.80" routeLength="4970.83" waitingTime="0.00" waitingCount="0" stopTime="0.00" timeLoss="27.13" rerouteNo="0" devices="tripinfo_CVToC.17 routing_CVToC.17 ssm_CVToC.17 toc_CVToC.17 driverstateCVToC.17" vType="vehLVOS168" speedFactor="1.03" vaporized=""/>
    <tripinfo id="CVToC.18" depart="55.90" departLane="entry_1" departPos="13.14" departSpeed="27.86" departDelay="2.70" arrival="213.40" arrivalLane="e0_1" arrivalPos="4800.00" arrivalSpeed="35.90" duration="157.50" routeLength="4986.86" waitingTime="0.00" waitingCount="0" stopTime="0.00" timeLoss="27.99" rerouteNo="0" devices="tripinfo_CVToC.18 routing_CVToC.18 ssm_CVToC.18 toc_CVToC.18 driverstateCVToC.18" vType="vehLVOS102" speedFactor="1.07" vaporized=""/>
    <tripinfo id="LV.10" depart="54.90" departLane="entry_0" departPos="13.07" departSpeed="33.70" departDelay="17.50" arrival="214.00" arrivalLane="e0_0" arrivalPos="4800.00" arrivalSpeed="33.68" duration="159.10" routeLength="4986.93" waitingTime="0.00" waitingCount="0" stopTime="0.00" timeLoss="11.04" rerouteNo="0" devices="tripinfo_LV.10 routing_LV.10 ssm_LV.10" vType="vehLVOS523" speedFactor="0.93" vaporized=""/>
    <tripinfo id="CVToC.20" depart="63.50" departLane="entry_1" departPos="1.27" departSpeed="30.62" departDelay="6.70" arrival="216.10" arrivalLane="e0_0" arrivalPos="4800.00" arrivalSpeed="36.43" duration="152.60" routeLength="4998.73" waitingTime="0.00" waitingCount="0" stopTime="0.00" timeLoss="15.43" rerouteNo="0" devices="tripinfo_CVToC.20 routing_CVToC.20 ssm_CVToC.20 toc_CVToC.20 driverstateCVToC.20" vType="vehLVOS975" speedFactor="1.01" vaporized=""/>
    <tripinfo id="CVToC.19" depart="62.00" departLane="entry_1" departPos="36.27" departSpeed="30.19" departDelay="7.80" arrival="218.20" arrivalLane="e0_1" arrivalPos="4800.00" arrivalSpeed="42.93" duration="156.20" routeLength="4963.73" waitingTime="0.00" waitingCount="0" stopTime="0.00" timeLoss="42.01" rerouteNo="0" devices="tripinfo_CVToC.19 routing_CVToC.19 ssm_CVToC.19 toc_CVToC.19 driverstateCVToC.19" vType="vehLVOS226" speedFactor="1.20" vaporized=""/>
    <tripinfo id="CVToC.16" depart="60.50" departLane="entry_0" departPos="6.68" departSpeed="28.14" departDelay="14.90" arrival="219.70" arrivalLane="e0_0" arrivalPos="4800.00" arrivalSpeed="39.71" duration="159.20" routeLength="4993.32" waitingTime="0.00" waitingCount="0" stopTime="0.00" timeLoss="33.97" rerouteNo="0" devices="tripinfo_CVToC.16 routing_CVToC.16 ssm_CVToC.16 toc_CVToC.16 driverstateCVToC.16" vType="vehLVOS240" speedFactor="1.10" vaporized=""/>
    <tripinfo id="CVToC.21" depart="65.80" departLane="entry_0" departPos="2.65" departSpeed="31.60" departDelay="8.90" arrival="220.70" arrivalLane="e0_0" arrivalPos="4800.00" arrivalSpeed="37.79" duration="154.90" routeLength="4997.35" waitingTime="0.00" waitingCount="0" stopTime="0.00" timeLoss="22.60" rerouteNo="0" devices="tripinfo_CVToC.21 routing_CVToC.21 ssm_CVToC.21 toc_CVToC.21 driverstateCVToC.21" vType="vehLVOS510" speedFactor="1.05" vaporized=""/>
    <tripinfo id="CAVToC.19" depart="67.50" departLane="entry_1" departPos="29.73" departSpeed="28.44" departDelay="10.40" arrival="221.40" arrivalLane="e0_1" arrivalPos="4800.00" arrivalSpeed="38.64" duration="153.90" routeLength="4970.27" waitingTime="0.00" waitingCount="0" stopTime="0.00" timeLoss="25.32" rerouteNo="0" devices="tripinfo_CAVToC.19 routing_CAVToC.19 ssm_CAVToC.19 toc_CAVToC.19 driverstateCAVToC.19" vType="vehLVOS999" speedFactor="1.07" vaporized=""/>
    <tripinfo id="CAVToC.18" depart="57.20" departLane="entry_0" departPos="2.94" departSpeed="29.82" departDelay="12.00" arrival="222.50" arrivalLane="e0_0" arrivalPos="4800.00" arrivalSpeed="36.66" duration="165.30" routeLength="4997.06" waitingTime="0.00" waitingCount="0" stopTime="0.00" timeLoss="29.12" rerouteNo="0" devices="tripinfo_CAVToC.18 routing_CAVToC.18 ssm_CAVToC.18 toc_CAVToC.18 driverstateCAVToC.18" vType="vehLVOS793" speedFactor="1.02" vaporized=""/>
    <tripinfo id="LV.13" depart="63.60" departLane="entry_0" departPos="13.27" departSpeed="32.36" departDelay="8.80" arrival="228.90" arrivalLane="e0_1" arrivalPos="4800.00" arrivalSpeed="32.34" duration="165.30" routeLength="4986.73" waitingTime="0.00" waitingCount="0" stopTime="0.00" timeLoss="11.16" rerouteNo="0" devices="tripinfo_LV.13 routing_LV.13 ssm_LV.13" vType="vehLVOS73" speedFactor="0.90" vaporized=""/>
    <tripinfo id="LV.14" depart="58.70" departLane="entry_1" departPos="31.56" departSpeed="30.21" departDelay="3.50" arrival="229.10" arrivalLane="e0_0" arrivalPos="4800.00" arrivalSpeed="30.19" duration="170.40" routeLength="4968.44" waitingTime="0.00" waitingCount="0" stopTime="0.00" timeLoss="5.85" rerouteNo="0" devices="tripinfo_LV.14 routing_LV.14 ssm_LV.14" vType="vehLVOS392" speedFactor="0.84" vaporized=""/>
    <tripinfo id="CAVToC.23" depart="70.70" departLane="entry_1" departPos="48.84" departSpeed="27.23" departDelay="6.40" arrival="239.70" arrivalLane="e0_1" arrivalPos="4800.00" arrivalSpeed="30.92" duration="169.00" routeLength="4951.16" waitingTime="0.00" waitingCount="0" stopTime="0.00" timeLoss="9.33" rerouteNo="0" devices="tripinfo_CAVToC.23 routing_CAVToC.23 ssm_CAVToC.23 toc_CAVToC.23 driverstateCAVToC.23" vType="vehLVOS554" speedFactor="0.86" vaporized=""/>
    <tripinfo id="LV.9" depart="72.40" departLane="entry_0" departPos="0.38" departSpeed="37.38" departDelay="35.10" arrival="242.40" arrivalLane="e0_0" arrivalPos="4800.00" arrivalSpeed="34.89" duration="170.00" routeLength="4999.62" waitingTime="0.00" waitingCount="0" stopTime="0.00" timeLoss="36.20" rerouteNo="0" devices="tripinfo_LV.9 routing_LV.9 ssm_LV.9" vType="vehLVOS736" speedFactor="1.04" vaporized=""/>
    <tripinfo id="CVToC.22" depart="74.40" departLane="entry_1" departPos="52.95" departSpeed="28.76" departDelay="16.60" arrival="242.60" arrivalLane="e0_1" arrivalPos="4800.00" arrivalSpeed="34.64" duration="168.20" routeLength="4947.05" waitingTime="0.00" waitingCount="0" stopTime="0.00" timeLoss="54.04" rerouteNo="0" devices="tripinfo_CVToC.22 routing_CVToC.22 ssm_CVToC.22 toc_CVToC.22 driverstateCVToC.22" vType="vehLVOS359" speedFactor="1.20" vaporized=""/>
    <tripinfo id="CAVToC.20" depart="75.60" departLane="entry_1" departPos="18.29" departSpeed="28.99" departDelay="14.80" arrival="243.70" arrivalLane="e0_1" arrivalPos="4800.00" arrivalSpeed="32.22" duration="168.10" routeLength="4981.71" waitingTime="0.00" waitingCount="0" stopTime="0.00" timeLoss="13.50" rerouteNo="0" devices="tripinfo_CAVToC.20 routing_CAVToC.20 ssm_CAVToC.20 toc_CAVToC.20 driverstateCAVToC.20" vType="vehLVOS477" speedFactor="0.89" vaporized=""/>
    <tripinfo id="CAVToC.22" depart="81.90" departLane="entry_1" departPos="110.40" departSpeed="27.39" departDelay="20.00" arrival="244.80" arrivalLane="e0_1" arrivalPos="4800.00" arrivalSpeed="33.08" duration="162.90" routeLength="4889.60" waitingTime="0.00" waitingCount="0" stopTime="0.00" timeLoss="33.16" rerouteNo="0" devices="tripinfo_CAVToC.22 routing_CAVToC.22 ssm_CAVToC.22 toc_CAVToC.22 driverstateCAVToC.22" vType="vehLVOS208" speedFactor="1.04" vaporized=""/>
    <tripinfo id="CVToC.23" depart="76.20" departLane="entry_0" departPos="38.51" departSpeed="31.01" departDelay="15.00" arrival="245.10" arrivalLane="e0_0" arrivalPos="4800.00" arrivalSpeed="33.42" duration="168.90" routeLength="4961.49" waitingTime="0.00" waitingCount="0" stopTime="0.00" timeLoss="45.75" rerouteNo="0" devices="tripinfo_CVToC.23 routing_CVToC.23 ssm_CVToC.23 toc_CVToC.23 driverstateCVToC.23" vType="vehLVOS789" speedFactor="1.12" vaporized=""/>
    <tripinfo id="CVToC.25" depart="81.90" departLane="entry_1" departPos="25.95" departSpeed="28.64" departDelay="16.70" arrival="248.80" arrivalLane="e0_1" arrivalPos="4800.00" arrivalSpeed="36.58" duration="166.90" routeLength="4974.05" waitingTime="0.00" waitingCount="0" stopTime="0.00" timeLoss="38.86" rerouteNo="0" devices="tripinfo_CVToC.25 routing_CVToC.25 ssm_CVToC.25 toc_CVToC.25 driverstateCVToC.25" vType="vehLVOS687" speedFactor="1.08" vaporized=""/>
    <tripinfo id="LV.12" depart="82.60" departLane="entry_0" departPos="13.68" departSpeed="33.74" departDelay="33.20" arrival="249.40" arrivalLane="e0_0" arrivalPos="4800.00" arrivalSpeed="33.73" duration="166.80" routeLength="4986.32" waitingTime="0.00" waitingCount="0" stopTime="0.00" timeLoss="18.95" rerouteNo="0" devices="tripinfo_LV.12 routing_LV.12 ssm_LV.12" vType="vehLVOS592" speedFactor="0.93" vaporized=""/>