<?xml version="1.0" encoding="UTF-8"?>

<!-- generated on Thu Aug 27 10:03:47 2020 by Eclipse SUMO sumo Version v1_6_0+1341-81c8bfe906
<configuration xmlns:xsi="http://www.w3.org/2001/XMLSchema-instance" xsi:noNamespaceSchemaLocation="http://sumo.dlr.de/xsd/sumoConfiguration.xsd">

    <input>
        <net-file value="scenario/UC5_1.net.xml"/>
        <route-files value="scenario/routes_trafficMix_0_trafficDemand_1_driverBehaviour_OS_seed_0.xml"/>
        <additional-files value="scenario/additionalsOutput_trafficMix_0_trafficDemand_1_driverBehaviour_OS_seed_0.xml,scenario/vTypesCAVToC_OS.add.xml,scenario/vTypesCVToC_OS.add.xml,scenario/vTypesLV_OS.add.xml,scenario/shapes.add.xml,scenario/view.add.xml"/>
    </input>

    <output>
        <tripinfo-output value="/home/anoulis/workspace/tor-distribution/outputs/simulations/DQN__2020-08-26_22-11-43__20200827-094847/tripinfo_3.xml"/>
    </output>

    <time>
        <step-length value="0.1"/>
    </time>

    <processing>
        <step-method.ballistic value="true"/>
        <ignore-route-errors value="true"/>
        <lanechange.duration value="2.5"/>
    </processing>

    <report>
        <no-step-log value="true"/>
    </report>

    <toc_device>
        <device.toc.ogNewTimeHeadway value="100"/>
        <device.toc.ogNewSpaceHeadway value="5"/>
        <device.toc.ogMaxDecel value="1"/>
        <device.toc.ogChangeRate value="1"/>
    </toc_device>

    <traci_server>
        <remote-port value="57533"/>
    </traci_server>

    <random_number>
        <seed value="1027"/>
    </random_number>

    <gui_only>
        <tracker-interval value="0.1"/>
    </gui_only>

</configuration>
-->

<tripinfos xmlns:xsi="http://www.w3.org/2001/XMLSchema-instance" xsi:noNamespaceSchemaLocation="http://sumo.dlr.de/xsd/tripinfo_file.xsd">
    <tripinfo id="CVToC.0" depart="2.30" departLane="entry_1" departPos="199.90" departSpeed="36.03" departDelay="0.00" arrival="135.70" arrivalLane="e0_0" arrivalPos="4800.00" arrivalSpeed="35.98" duration="133.40" routeLength="4800.10" waitingTime="0.00" waitingCount="0" stopTime="0.00" timeLoss="0.10" rerouteNo="0" devices="tripinfo_CVToC.0 routing_CVToC.0 ssm_CVToC.0 toc_CVToC.0 driverstateCVToC.0" vType="vehLVOS994" speedFactor="1.00" vaporized=""/>
    <tripinfo id="CAVToC.0" depart="0.90" departLane="entry_0" departPos="199.90" departSpeed="34.72" departDelay="0.00" arrival="139.20" arrivalLane="e0_0" arrivalPos="4800.00" arrivalSpeed="34.72" duration="138.30" routeLength="4800.10" waitingTime="0.00" waitingCount="0" stopTime="0.00" timeLoss="0.01" rerouteNo="0" devices="tripinfo_CAVToC.0 routing_CAVToC.0 ssm_CAVToC.0 toc_CAVToC.0 driverstateCAVToC.0" vType="vehLVOS962" speedFactor="0.96" vaporized=""/>
    <tripinfo id="CVToC.1" depart="3.30" departLane="entry_1" departPos="157.38" departSpeed="36.16" departDelay="0.00" arrival="140.70" arrivalLane="e0_1" arrivalPos="4800.00" arrivalSpeed="36.50" duration="137.40" routeLength="4842.62" waitingTime="0.00" waitingCount="0" stopTime="0.00" timeLoss="5.02" rerouteNo="0" devices="tripinfo_CVToC.1 routing_CVToC.1 ssm_CVToC.1 toc_CVToC.1 driverstateCVToC.1" vType="vehLVOS657" speedFactor="1.01" vaporized=""/>
    <tripinfo id="CAVToC.2" depart="4.70" departLane="entry_0" departPos="199.90" departSpeed="36.46" departDelay="0.00" arrival="140.90" arrivalLane="e0_0" arrivalPos="4800.00" arrivalSpeed="36.83" duration="136.20" routeLength="4800.10" waitingTime="0.00" waitingCount="0" stopTime="0.00" timeLoss="12.52" rerouteNo="0" devices="tripinfo_CAVToC.2 routing_CAVToC.2 ssm_CAVToC.2 toc_CAVToC.2 driverstateCAVToC.2" vType="vehLVOS6" speedFactor="1.07" vaporized=""/>
    <tripinfo id="CAVToC.1" depart="3.70" departLane="entry_1" departPos="89.39" departSpeed="36.34" departDelay="0.00" arrival="141.50" arrivalLane="e0_1" arrivalPos="4800.00" arrivalSpeed="37.82" duration="137.80" routeLength="4910.61" waitingTime="0.00" waitingCount="0" stopTime="0.00" timeLoss="7.98" rerouteNo="0" devices="tripinfo_CAVToC.1 routing_CAVToC.1 ssm_CAVToC.1 toc_CAVToC.1 driverstateCAVToC.1" vType="vehLVOS597" speedFactor="1.05" vaporized=""/>
    <tripinfo id="LV.0" depart="3.90" departLane="entry_1" departPos="0.40" departSpeed="40.95" departDelay="0.10" arrival="142.80" arrivalLane="e0_1" arrivalPos="4800.00" arrivalSpeed="38.63" duration="138.90" routeLength="4999.60" waitingTime="0.00" waitingCount="0" stopTime="0.00" timeLoss="16.78" rerouteNo="0" devices="tripinfo_LV.0 routing_LV.0 ssm_LV.0" vType="vehLVOS602" speedFactor="1.13" vaporized=""/>
    <tripinfo id="LV.1" depart="5.30" departLane="entry_1" departPos="44.68" departSpeed="38.10" departDelay="0.00" arrival="143.70" arrivalLane="e0_0" arrivalPos="4800.00" arrivalSpeed="38.06" duration="138.40" routeLength="4955.32" waitingTime="0.00" waitingCount="0" stopTime="0.00" timeLoss="8.26" rerouteNo="0" devices="tripinfo_LV.1 routing_LV.1 ssm_LV.1" vType="vehLVOS213" speedFactor="1.06" vaporized=""/>
    <tripinfo id="CAVToC.6" depart="6.60" departLane="entry_1" departPos="16.85" departSpeed="36.34" departDelay="0.20" arrival="144.40" arrivalLane="e0_1" arrivalPos="4800.00" arrivalSpeed="37.60" duration="137.80" routeLength="4983.15" waitingTime="0.00" waitingCount="0" stopTime="0.00" timeLoss="5.38" rerouteNo="0" devices="tripinfo_CAVToC.6 routing_CAVToC.6 ssm_CAVToC.6 toc_CAVToC.6 driverstateCAVToC.6" vType="vehLVOS434" speedFactor="1.04" vaporized=""/>
    <tripinfo id="CAVToC.3" depart="5.10" departLane="entry_0" departPos="120.99" departSpeed="36.51" departDelay="0.10" arrival="147.20" arrivalLane="e0_1" arrivalPos="4800.00" arrivalSpeed="41.12" duration="142.10" routeLength="4879.01" waitingTime="0.00" waitingCount="0" stopTime="0.00" timeLoss="31.30" rerouteNo="0" devices="tripinfo_CAVToC.3 routing_CAVToC.3 ssm_CAVToC.3 toc_CAVToC.3 driverstateCAVToC.3" vType="vehLVOS679" speedFactor="1.22" vaporized=""/>
    <tripinfo id="CAVToC.4" depart="5.90" departLane="entry_0" departPos="63.26" departSpeed="35.85" departDelay="0.30" arrival="148.80" arrivalLane="e0_0" arrivalPos="4800.00" arrivalSpeed="39.67" duration="142.90" routeLength="4936.74" waitingTime="0.00" waitingCount="0" stopTime="0.00" timeLoss="18.80" rerouteNo="0" devices="tripinfo_CAVToC.4 routing_CAVToC.4 ssm_CAVToC.4 toc_CAVToC.4 driverstateCAVToC.4" vType="vehLVOS574" speedFactor="1.10" vaporized=""/>
    <tripinfo id="CVToC.3" depart="10.50" departLane="entry_1" departPos="3.85" departSpeed="34.36" departDelay="2.50" arrival="151.70" arrivalLane="e0_0" arrivalPos="4800.00" arrivalSpeed="37.54" duration="141.20" routeLength="4996.15" waitingTime="0.00" waitingCount="0" stopTime="0.00" timeLoss="8.29" rerouteNo="0" devices="tripinfo_CVToC.3 routing_CVToC.3 ssm_CVToC.3 toc_CVToC.3 driverstateCVToC.3" vType="vehLVOS153" speedFactor="1.04" vaporized=""/>
    <tripinfo id="LV.2" depart="11.70" departLane="entry_0" departPos="0.76" departSpeed="37.94" departDelay="0.40" arrival="154.50" arrivalLane="e0_0" arrivalPos="4800.00" arrivalSpeed="37.89" duration="142.80" routeLength="4999.24" waitingTime="0.00" waitingCount="0" stopTime="0.00" timeLoss="10.95" rerouteNo="0" devices="tripinfo_LV.2 routing_LV.2 ssm_LV.2" vType="vehLVOS915" speedFactor="1.05" vaporized=""/>
    <tripinfo id="CAVToC.7" depart="8.30" departLane="entry_1" departPos="9.79" departSpeed="33.88" departDelay="0.10" arrival="158.40" arrivalLane="e0_0" arrivalPos="4800.00" arrivalSpeed="33.87" duration="150.10" routeLength="4990.21" waitingTime="0.00" waitingCount="0" stopTime="0.00" timeLoss="2.80" rerouteNo="0" devices="tripinfo_CAVToC.7 routing_CAVToC.7 ssm_CAVToC.7 toc_CAVToC.7 driverstateCAVToC.7" vType="vehLVOS457" speedFactor="0.94" vaporized=""/>
    <tripinfo id="CAVToC.5" depart="6.90" departLane="entry_0" departPos="9.93" departSpeed="35.84" departDelay="0.80" arrival="159.50" arrivalLane="e0_0" arrivalPos="4800.00" arrivalSpeed="35.05" duration="152.60" routeLength="4990.07" waitingTime="0.00" waitingCount="0" stopTime="0.00" timeLoss="28.39" rerouteNo="0" devices="tripinfo_CAVToC.5 routing_CAVToC.5 ssm_CAVToC.5 toc_CAVToC.5 driverstateCAVToC.5" vType="vehLVOS866" speedFactor="1.11" vaporized=""/>
    <tripinfo id="CVToC.6" depart="16.80" departLane="entry_0" departPos="20.93" departSpeed="31.63" departDelay="1.30" arrival="159.60" arrivalLane="e0_1" arrivalPos="4800.00" arrivalSpeed="36.87" duration="142.80" routeLength="4979.07" waitingTime="0.00" waitingCount="0" stopTime="0.00" timeLoss="7.81" rerouteNo="0" devices="tripinfo_CVToC.6 routing_CVToC.6 ssm_CVToC.6 toc_CVToC.6 driverstateCVToC.6" vType="vehLVOS223" speedFactor="1.02" vaporized=""/>
    <tripinfo id="CAVToC.8" depart="15.90" departLane="entry_1" departPos="21.76" departSpeed="32.34" departDelay="4.10" arrival="160.80" arrivalLane="e0_1" arrivalPos="4800.00" arrivalSpeed="38.79" duration="144.90" routeLength="4978.24" waitingTime="0.00" waitingCount="0" stopTime="0.00" timeLoss="24.10" rerouteNo="0" devices="tripinfo_CAVToC.8 routing_CAVToC.8 ssm_CAVToC.8 toc_CAVToC.8 driverstateCAVToC.8" vType="vehLVOS704" speedFactor="1.14" vaporized=""/>
    <tripinfo id="CVToC.2" depart="8.80" departLane="entry_0" departPos="2.98" departSpeed="34.72" departDelay="1.90" arrival="161.30" arrivalLane="e0_0" arrivalPos="4800.00" arrivalSpeed="35.44" duration="152.50" routeLength="4997.02" waitingTime="0.00" waitingCount="0" stopTime="0.00" timeLoss="11.46" rerouteNo="0" devices="tripinfo_CVToC.2 routing_CVToC.2 ssm_CVToC.2 toc_CVToC.2 driverstateCVToC.2" vType="vehLVOS812" speedFactor="0.98" vaporized=""/>
    <tripinfo id="CVToC.4" depart="13.00" departLane="entry_1" departPos="21.40" departSpeed="31.23" departDelay="0.90" arrival="172.80" arrivalLane="e0_0" arrivalPos="4800.00" arrivalSpeed="31.23" duration="159.80" routeLength="4978.60" waitingTime="0.00" waitingCount="0" stopTime="0.00" timeLoss="0.34" rerouteNo="0" devices="tripinfo_CVToC.4 routing_CVToC.4 ssm_CVToC.4 toc_CVToC.4 driverstateCVToC.4" vType="vehLVOS807" speedFactor="0.86" vaporized=""/>
    <tripinfo id="CVToC.5" depart="13.90" departLane="entry_0" departPos="13.03" departSpeed="31.63" departDelay="0.90" arrival="174.70" arrivalLane="e0_0" arrivalPos="4800.00" arrivalSpeed="31.63" duration="160.80" routeLength="4986.97" waitingTime="0.00" waitingCount="0" stopTime="0.00" timeLoss="3.14" rerouteNo="0" devices="tripinfo_CVToC.5 routing_CVToC.5 ssm_CVToC.5 toc_CVToC.5 driverstateCVToC.5" vType="vehLVOS87" speedFactor="0.88" vaporized=""/>
    <tripinfo id="LV.4" depart="17.90" departLane="entry_1" departPos="50.90" departSpeed="30.92" departDelay="0.10" arrival="181.50" arrivalLane="e0_0" arrivalPos="4800.00" arrivalSpeed="30.92" duration="163.60" routeLength="4949.10" waitingTime="0.00" waitingCount="0" stopTime="0.00" timeLoss="3.48" rerouteNo="0" devices="tripinfo_LV.4 routing_LV.4 ssm_LV.4" vType="vehLVOS409" speedFactor="0.86" vaporized=""/>
    <tripinfo id="LV.5" depart="19.10" departLane="entry_1" departPos="5.63" departSpeed="31.33" departDelay="0.40" arrival="181.90" arrivalLane="e0_1" arrivalPos="4800.00" arrivalSpeed="31.33" duration="162.80" routeLength="4994.37" waitingTime="0.00" waitingCount="0" stopTime="0.00" timeLoss="3.32" rerouteNo="0" devices="tripinfo_LV.5 routing_LV.5 ssm_LV.5" vType="vehLVOS158" speedFactor="0.87" vaporized=""/>
    <tripinfo id="CVToC.8" depart="21.60" departLane="entry_1" departPos="3.01" departSpeed="31.79" departDelay="2.00" arrival="183.30" arrivalLane="e0_1" arrivalPos="4800.00" arrivalSpeed="34.72" duration="161.70" routeLength="4996.99" waitingTime="0.00" waitingCount="0" stopTime="0.00" timeLoss="22.77" rerouteNo="0" devices="tripinfo_CVToC.8 routing_CVToC.8 ssm_CVToC.8 toc_CVToC.8 driverstateCVToC.8" vType="vehLVOS3" speedFactor="1.00" vaporized=""/>
    <tripinfo id="CVToC.7" depart="18.90" departLane="entry_0" departPos="13.97" departSpeed="31.40" departDelay="0.80" arrival="183.90" arrivalLane="e0_0" arrivalPos="4800.00" arrivalSpeed="32.85" duration="165.00" routeLength="4986.03" waitingTime="0.00" waitingCount="0" stopTime="0.00" timeLoss="13.24" rerouteNo="0" devices="tripinfo_CVToC.7 routing_CVToC.7 ssm_CVToC.7 toc_CVToC.7 driverstateCVToC.7" vType="vehLVOS426" speedFactor="0.91" vaporized=""/>
    <tripinfo id="CVToC.9" depart="24.40" departLane="entry_1" departPos="9.25" departSpeed="32.31" departDelay="0.80" arrival="184.80" arrivalLane="e0_1" arrivalPos="4800.00" arrivalSpeed="35.74" duration="160.40" routeLength="4990.75" waitingTime="0.00" waitingCount="0" stopTime="0.00" timeLoss="29.37" rerouteNo="0" devices="tripinfo_CVToC.9 routing_CVToC.9 ssm_CVToC.9 toc_CVToC.9 driverstateCVToC.9" vType="vehLVOS650" speedFactor="1.06" vaporized=""/>
    <tripinfo id="CAVToC.9" depart="21.40" departLane="entry_0" departPos="2.68" departSpeed="31.59" departDelay="4.20" arrival="185.80" arrivalLane="e0_0" arrivalPos="4800.00" arrivalSpeed="37.58" duration="164.40" routeLength="4997.32" waitingTime="0.00" waitingCount="0" stopTime="0.00" timeLoss="39.48" rerouteNo="0" devices="tripinfo_CAVToC.9 routing_CAVToC.9 ssm_CAVToC.9 toc_CAVToC.9 driverstateCAVToC.9" vType="vehLVOS505" speedFactor="1.11" vaporized=""/>
    <tripinfo id="CAVToC.14" depart="26.80" departLane="entry_1" departPos="18.10" departSpeed="31.24" departDelay="4.70" arrival="188.30" arrivalLane="e0_1" arrivalPos="4800.00" arrivalSpeed="31.08" duration="161.50" routeLength="4981.90" waitingTime="0.00" waitingCount="0" stopTime="0.00" timeLoss="1.97" rerouteNo="0" devices="tripinfo_CAVToC.14 routing_CAVToC.14 ssm_CAVToC.14 toc_CAVToC.14 driverstateCAVToC.14" vType="vehLVOS681" speedFactor="0.87" vaporized=""/>
    <tripinfo id="CAVToC.13" depart="23.50" departLane="entry_0" departPos="0.19" departSpeed="31.38" departDelay="2.80" arrival="188.90" arrivalLane="e0_0" arrivalPos="4800.00" arrivalSpeed="32.30" duration="165.40" routeLength="4999.81" waitingTime="0.00" waitingCount="0" stopTime="0.00" timeLoss="14.29" rerouteNo="0" devices="tripinfo_CAVToC.13 routing_CAVToC.13 ssm_CAVToC.13 toc_CAVToC.13 driverstateCAVToC.13" vType="vehLVOS308" speedFactor="0.92" vaporized=""/>
    <tripinfo id="CAVToC.11" depart="28.90" departLane="entry_1" departPos="10.06" departSpeed="31.52" departDelay="8.80" arrival="190.70" arrivalLane="e0_1" arrivalPos="4800.00" arrivalSpeed="35.36" duration="161.80" routeLength="4989.94" waitingTime="0.00" waitingCount="0" stopTime="0.00" timeLoss="20.65" rerouteNo="0" devices="tripinfo_CAVToC.11 routing_CAVToC.11 ssm_CAVToC.11 toc_CAVToC.11 driverstateCAVToC.11" vType="vehLVOS748" speedFactor="0.98" vaporized=""/>
    <tripinfo id="CAVToC.16" depart="31.40" departLane="entry_1" departPos="1.34" departSpeed="32.39" departDelay="1.40" arrival="191.60" arrivalLane="e0_1" arrivalPos="4800.00" arrivalSpeed="34.69" duration="160.20" routeLength="4998.66" waitingTime="0.00" waitingCount="0" stopTime="0.00" timeLoss="38.90" rerouteNo="0" devices="tripinfo_CAVToC.16 routing_CAVToC.16 ssm_CAVToC.16 toc_CAVToC.16 driverstateCAVToC.16" vType="vehLVOS420" speedFactor="1.14" vaporized=""/>
    <tripinfo id="LV.9" depart="36.50" departLane="entry_1" departPos="15.41" departSpeed="36.40" departDelay="3.60" arrival="192.80" arrivalLane="e0_1" arrivalPos="4800.00" arrivalSpeed="34.81" duration="156.30" routeLength="4984.59" waitingTime="0.00" waitingCount="0" stopTime="0.00" timeLoss="19.33" rerouteNo="0" devices="tripinfo_LV.9 routing_LV.9 ssm_LV.9" vType="vehLVOS15" speedFactor="1.01" vaporized=""/>
    <tripinfo id="CAVToC.10" depart="26.40" departLane="entry_0" departPos="4.31" departSpeed="31.65" departDelay="7.70" arrival="193.00" arrivalLane="e0_0" arrivalPos="4800.00" arrivalSpeed="35.08" duration="166.60" routeLength="4995.69" waitingTime="0.00" waitingCount="0" stopTime="0.00" timeLoss="40.67" rerouteNo="0" devices="tripinfo_CAVToC.10 routing_CAVToC.10 ssm_CAVToC.10 toc_CAVToC.10 driverstateCAVToC.10" vType="vehLVOS487" speedFactor="1.10" vaporized=""/>
    <tripinfo id="CVToC.12" depart="38.70" departLane="entry_1" departPos="7.10" departSpeed="35.25" departDelay="5.30" arrival="194.70" arrivalLane="e0_1" arrivalPos="4800.00" arrivalSpeed="37.04" duration="156.00" routeLength="4992.90" waitingTime="0.00" waitingCount="0" stopTime="0.00" timeLoss="31.31" rerouteNo="0" devices="tripinfo_CVToC.12 routing_CVToC.12 ssm_CVToC.12 toc_CVToC.12 driverstateCVToC.12" vType="vehLVOS712" speedFactor="1.11" vaporized=""/>
    <tripinfo id="CAVToC.15" depart="33.80" departLane="entry_1" departPos="4.72" departSpeed="32.57" departDelay="4.90" arrival="194.90" arrivalLane="e0_0" arrivalPos="4800.00" arrivalSpeed="33.46" duration="161.10" routeLength="4995.28" waitingTime="0.00" waitingCount="0" stopTime="0.00" timeLoss="12.16" rerouteNo="0" devices="tripinfo_CAVToC.15 routing_CAVToC.15 ssm_CAVToC.15 toc_CAVToC.15 driverstateCAVToC.15" vType="vehLVOS849" speedFactor="0.93" vaporized=""/>
    <tripinfo id="CVToC.13" depart="44.90" departLane="entry_1" departPos="45.11" departSpeed="30.82" departDelay="5.60" arrival="195.80" arrivalLane="e0_1" arrivalPos="4800.00" arrivalSpeed="35.57" duration="150.90" routeLength="4954.89" waitingTime="0.00" waitingCount="0" stopTime="0.00" timeLoss="44.40" rerouteNo="0" devices="tripinfo_CVToC.13 routing_CVToC.13 ssm_CVToC.13 toc_CVToC.13 driverstateCVToC.13" vType="vehLVOS546" speedFactor="1.29" vaporized=""/>
    <tripinfo id="CAVToC.20" depart="48.00" departLane="entry_1" departPos="61.50" departSpeed="28.46" departDelay="2.80" arrival="196.70" arrivalLane="e0_1" arrivalPos="4800.00" arrivalSpeed="35.32" duration="148.70" routeLength="4938.50" waitingTime="0.00" waitingCount="0" stopTime="0.00" timeLoss="8.79" rerouteNo="0" devices="tripinfo_CAVToC.20 routing_CAVToC.20 ssm_CAVToC.20 toc_CAVToC.20 driverstateCAVToC.20" vType="vehLVOS867" speedFactor="0.98" vaporized=""/>
    <tripinfo id="CAVToC.21" depart="50.30" departLane="entry_1" departPos="36.12" departSpeed="28.90" departDelay="4.50" arrival="198.00" arrivalLane="e0_1" arrivalPos="4800.00" arrivalSpeed="37.33" duration="147.70" routeLength="4963.88" waitingTime="0.00" waitingCount="0" stopTime="0.00" timeLoss="30.93" rerouteNo="0" devices="tripinfo_CAVToC.21 routing_CAVToC.21 ssm_CAVToC.21 toc_CAVToC.21 driverstateCAVToC.21" vType="vehLVOS983" speedFactor="1.18" vaporized=""/>
    <tripinfo id="LV.3" depart="54.90" departLane="entry_1" departPos="2.21" departSpeed="42.65" departDelay="43.40" arrival="199.30" arrivalLane="e0_1" arrivalPos="4800.00" arrivalSpeed="36.74" duration="144.40" routeLength="4997.79" waitingTime="0.00" waitingCount="0" stopTime="0.00" timeLoss="27.19" rerouteNo="0" devices="tripinfo_LV.3 routing_LV.3 ssm_LV.3" vType="vehLVOS906" speedFactor="1.18" vaporized=""/>
    <tripinfo id="LV.8" depart="40.60" departLane="entry_1" departPos="11.14" departSpeed="32.76" departDelay="9.20" arrival="200.50" arrivalLane="e0_0" arrivalPos="4800.00" arrivalSpeed="32.76" duration="159.90" routeLength="4988.86" waitingTime="0.00" waitingCount="0" stopTime="0.00" timeLoss="7.56" rerouteNo="0" devices="tripinfo_LV.8 routing_LV.8 ssm_LV.8" vType="vehLVOS147" speedFactor="0.91" vaporized=""/>
    <tripinfo id="LV.13" depart="57.60" departLane="entry_1" departPos="29.69" departSpeed="41.54" departDelay="10.50" arrival="200.80" arrivalLane="e0_1" arrivalPos="4800.00" arrivalSpeed="37.16" duration="143.20" routeLength="4970.31" waitingTime="0.00" waitingCount="0" stopTime="0.00" timeLoss="23.49" rerouteNo="0" devices="tripinfo_LV.13 routing_LV.13 ssm_LV.13" vType="vehLVOS824" speedFactor="1.15" vaporized=""/>
    <tripinfo id="CAVToC.12" depart="29.10" departLane="entry_0" departPos="5.92" departSpeed="30.52" departDelay="8.50" arrival="201.50" arrivalLane="e0_0" arrivalPos="4800.00" arrivalSpeed="33.91" duration="172.40" routeLength="4994.08" waitingTime="0.00" waitingCount="0" stopTime="0.00" timeLoss="44.16" rerouteNo="0" devices="tripinfo_CAVToC.12 routing_CAVToC.12 ssm_CAVToC.12 toc_CAVToC.12 driverstateCAVToC.12" vType="vehLVOS866" speedFactor="1.08" vaporized=""/>
    <tripinfo id="LV.14" depart="58.10" departLane="entry_1" departPos="10.59" departSpeed="41.19" departDelay="0.00" arrival="201.70" arrivalLane="e0_1" arrivalPos="4800.00" arrivalSpeed="38.63" duration="143.60" routeLength="4989.41" waitingTime="0.00" waitingCount="0" stopTime="0.00" timeLoss="22.45" rerouteNo="0" devices="tripinfo_LV.14 routing_LV.14 ssm_LV.14" vType="vehLVOS115" speedFactor="1.14" vaporized=""/>
    <tripinfo id="CVToC.10" depart="32.30" departLane="entry_0" departPos="30.41" departSpeed="29.61" departDelay="6.10" arrival="203.10" arrivalLane="e0_0" arrivalPos="4800.00" arrivalSpeed="33.15" duration="170.80" routeLength="4969.59" waitingTime="0.00" waitingCount="0" stopTime="0.00" timeLoss="21.36" rerouteNo="0" devices="tripinfo_CVToC.10 routing_CVToC.10 ssm_CVToC.10 toc_CVToC.10 driverstateCVToC.10" vType="vehLVOS880" speedFactor="0.92" vaporized=""/>
    <tripinfo id="CVToC.15" depart="61.20" departLane="entry_1" departPos="61.74" departSpeed="35.76" departDelay="8.90" arrival="205.50" arrivalLane="e0_1" arrivalPos="4800.00" arrivalSpeed="35.75" duration="144.30" routeLength="4938.26" waitingTime="0.00" waitingCount="0" stopTime="0.00" timeLoss="6.16" rerouteNo="0" devices="tripinfo_CVToC.15 routing_CVToC.15 ssm_CVToC.15 toc_CVToC.15 driverstateCVToC.15" vType="vehLVOS344" speedFactor="0.99" vaporized=""/>
    <tripinfo id="CVToC.11" depart="33.90" departLane="entry_0" departPos="3.50" departSpeed="29.76" departDelay="3.50" arrival="206.50" arrivalLane="e0_0" arrivalPos="4800.00" arrivalSpeed="32.86" duration="172.60" routeLength="4996.50" waitingTime="0.00" waitingCount="0" stopTime="0.00" timeLoss="20.52" rerouteNo="0" devices="tripinfo_CVToC.11 routing_CVToC.11 ssm_CVToC.11 toc_CVToC.11 driverstateCVToC.11" vType="vehLVOS899" speedFactor="0.91" vaporized=""/>
    <tripinfo id="LV.7" depart="38.20" departLane="entry_0" departPos="6.44" departSpeed="37.79" departDelay="7.80" arrival="207.40" arrivalLane="e0_0" arrivalPos="4800.00" arrivalSpeed="34.20" duration="169.20" routeLength="4993.56" waitingTime="0.00" waitingCount="0" stopTime="0.00" timeLoss="36.99" rerouteNo="0" devices="tripinfo_LV.7 routing_LV.7 ssm_LV.7" vType="vehLVOS989" speedFactor="1.05" vaporized=""/>
    <tripinfo id="LV.10" depart="61.70" departLane="entry_1" departPos="7.07" departSpeed="36.38" departDelay="26.40" arrival="207.60" arrivalLane="e0_1" arrivalPos="4800.00" arrivalSpeed="36.26" duration="145.90" routeLength="4992.93" waitingTime="0.00" waitingCount="0" stopTime="0.00" timeLoss="8.60" rerouteNo="0" devices="tripinfo_LV.10 routing_LV.10 ssm_LV.10" vType="vehLVOS886" speedFactor="1.01" vaporized=""/>
    <tripinfo id="LV.11" depart="55.20" departLane="entry_0" departPos="4.39" departSpeed="40.29" departDelay="13.80" arrival="209.10" arrivalLane="e0_1" arrivalPos="4800.00" arrivalSpeed="37.70" duration="153.90" routeLength="4995.61" waitingTime="0.00" waitingCount="0" stopTime="0.00" timeLoss="29.86" rerouteNo="0" devices="tripinfo_LV.11 routing_LV.11 ssm_LV.11" vType="vehLVOS563" speedFactor="1.12" vaporized=""/>
    <tripinfo id="CVToC.14" depart="50.80" departLane="entry_0" departPos="64.92" departSpeed="27.44" departDelay="9.00" arrival="211.40" arrivalLane="e0_1" arrivalPos="4800.00" arrivalSpeed="38.76" duration="160.60" routeLength="4935.08" waitingTime="0.00" waitingCount="0" stopTime="0.00" timeLoss="33.35" rerouteNo="0" devices="tripinfo_CVToC.14 routing_CVToC.14 ssm_CVToC.14 toc_CVToC.14 driverstateCVToC.14" vType="vehLVOS11" speedFactor="1.07" vaporized=""/>
    <tripinfo id="CVToC.18" depart="63.60" departLane="entry_1" departPos="5.16" departSpeed="34.24" departDelay="2.40" arrival="211.40" arrivalLane="e0_0" arrivalPos="4800.00" arrivalSpeed="34.22" duration="147.80" routeLength="4994.84" waitingTime="0.00" waitingCount="0" stopTime="0.00" timeLoss="1.85" rerouteNo="0" devices="tripinfo_CVToC.18 routing_CVToC.18 ssm_CVToC.18 toc_CVToC.18 driverstateCVToC.18" vType="vehLVOS366" speedFactor="0.95" vaporized=""/>
    <tripinfo id="CAVToC.18" depart="42.80" departLane="entry_0" departPos="8.62" departSpeed="30.95" departDelay="6.50" arrival="212.50" arrivalLane="e0_1" arrivalPos="4800.00" arrivalSpeed="39.09" duration="169.70" routeLength="4991.38" waitingTime="0.00" waitingCount="0" stopTime="0.00" timeLoss="43.22" rerouteNo="0" devices="tripinfo_CAVToC.18 routing_CAVToC.18 ssm_CAVToC.18 toc_CAVToC.18 driverstateCAVToC.18" vType="vehLVOS546" speedFactor="1.09" vaporized=""/>
    <tripinfo id="CAVToC.19" depart="45.60" departLane="entry_0" departPos="6.71" departSpeed="30.49" departDelay="7.80" arrival="215.10" arrivalLane="e0_1" arrivalPos="4800.00" arrivalSpeed="38.82" duration="169.50" routeLength="4993.29" waitingTime="0.00" waitingCount="0" stopTime="0.00" timeLoss="40.90" rerouteNo="0" devices="tripinfo_CAVToC.19 routing_CAVToC.19 ssm_CAVToC.19 toc_CAVToC.19 driverstateCAVToC.19" vType="vehLVOS752" speedFactor="1.08" vaporized=""/>
    <tripinfo id="CAVToC.17" depart="40.00" departLane="entry_0" departPos="10.47" departSpeed="29.87" departDelay="4.80" arrival="221.70" arrivalLane="e0_0" arrivalPos="4800.00" arrivalSpeed="29.72" duration="181.70" routeLength="4989.53" waitingTime="0.00" waitingCount="0" stopTime="0.00" timeLoss="14.60" rerouteNo="0" devices="tripinfo_CAVToC.17 routing_CAVToC.17 ssm_CAVToC.17 toc_CAVToC.17 driverstateCAVToC.17" vType="vehLVOS351" speedFactor="0.83" vaporized=""/>
    <tripinfo id="LV.16" depart="62.90" departLane="entry_0" departPos="22.08" departSpeed="31.94" departDelay="2.20" arrival="223.00" arrivalLane="e0_0" arrivalPos="4800.00" arrivalSpeed="31.88" duration="160.10" routeLength="4977.92" waitingTime="0.00" waitingCount="0" stopTime="0.00" timeLoss="4.16" rerouteNo="0" devices="tripinfo_LV.16 routing_LV.16 ssm_LV.16" vType="vehLVOS116" speedFactor="0.88" vaporized=""/>
    <tripinfo id="CVToC.20" depart="65.30" departLane="entry_1" departPos="1.34" departSpeed="29.10" departDelay="0.60" arrival="237.40" arrivalLane="e0_1" arrivalPos="4800.00" arrivalSpeed="29.09" duration="172.10" routeLength="4998.66" waitingTime="0.00" waitingCount="0" stopTime="0.00" timeLoss="0.25" rerouteNo="0" devices="tripinfo_CVToC.20 routing_CVToC.20 ssm_CVToC.20 toc_CVToC.20 driverstateCVToC.20" vType="vehLVOS931" speedFactor="0.81" vaporized=""/>
    <tripinfo id="CAVToC.24" depart="68.10" departLane="entry_1" departPos="2.45" departSpeed="29.89" departDelay="0.00" arrival="238.50" arrivalLane="e0_1" arrivalPos="4800.00" arrivalSpeed="30.83" duration="170.40" routeLength="4997.55" waitingTime="0.00" waitingCount="0" stopTime="0.00" timeLoss="30.58" rerouteNo="0" devices="tripinfo_CAVToC.24 routing_CAVToC.24 ssm_CAVToC.24 toc_CAVToC.24 driverstateCAVToC.24" vType="vehLVOS419" speedFactor="0.99" vaporized=""/>
    <tripinfo id="CAVToC.22" depart="57.90" departLane="entry_0" departPos="28.01" departSpeed="36.38" departDelay="8.80" arrival="238.70" arrivalLane="e0_0" arrivalPos="4800.00" arrivalSpeed="30.91" duration="180.80" routeLength="4971.99" waitingTime="0.00" waitingCount="0" stopTime="0.00" timeLoss="50.57" rerouteNo="0" devices="tripinfo_CAVToC.22 routing_CAVToC.22 ssm_CAVToC.22 toc_CAVToC.22 driverstateCAVToC.22" vType="vehLVOS769" speedFactor="1.06" vaporized=""/>
    <tripinfo id="LV.17" depart="69.90" departLane="entry_1" departPos="4.04" departSpeed="32.26" departDelay="0.60" arrival="239.70" arrivalLane="e0_1" arrivalPos="4800.00" arrivalSpeed="31.29" duration="169.80" routeLength="4995.96" waitingTime="0.00" waitingCount="0" stopTime="0.00" timeLoss="14.88" rerouteNo="0" devices="tripinfo_LV.17 routing_LV.17 ssm_LV.17" vType="vehLVOS420" speedFactor="0.89" vaporized=""/>
    <tripinfo id="CVToC.16" depart="60.60" departLane="entry_0" departPos="42.93" departSpeed="34.54" departDelay="3.20" arrival="241.10" arrivalLane="e0_0" arrivalPos="4800.00" arrivalSpeed="31.89" duration="180.50" routeLength="4957.07" waitingTime="0.00" waitingCount="0" stopTime="0.00" timeLoss="46.52" rerouteNo="0" devices="tripinfo_CVToC.16 routing_CVToC.16 ssm_CVToC.16 toc_CVToC.16 driverstateCVToC.16" vType="vehLVOS686" speedFactor="1.02" vaporized=""/>
    <tripinfo id="CVToC.22" depart="73.50" departLane="entry_1" departPos="37.00" departSpeed="32.18" departDelay="1.60" arrival="241.60" arrivalLane="e0_1" arrivalPos="4800.00" arrivalSpeed="32.54" duration="168.10" routeLength="4963.00" waitingTime="0.00" waitingCount="0" stopTime="0.00" timeLoss="37.65" rerouteNo="0" devices="tripinfo_CVToC.22 routing_CVToC.22 ssm_CVToC.22 toc_CVToC.22 driverstateCVToC.22" vType="vehLVOS594" speedFactor="1.05" vaporized=""/>
    <tripinfo id="CVToC.17" depart="62.50" departLane="entry_0" departPos="38.56" departSpeed="31.75" departDelay="2.00" arrival="242.30" arrivalLane="e0_0" arrivalPos="4800.00" arrivalSpeed="31.73" duration="179.80" routeLength="4961.44" waitingTime="0.00" waitingCount="0" stopTime="0.00" timeLoss="23.49" rerouteNo="0" devices="tripinfo_CVToC.17 routing_CVToC.17 ssm_CVToC.17 toc_CVToC.17 driverstateCVToC.17" vType="vehLVOS313" speedFactor="0.88" vaporized=""/>
    <tripinfo id="CVToC.23" depart="78.40" departLane="entry_1" departPos="48.83" departSpeed="29.43" departDelay="4.60" arrival="242.80" arrivalLane="e0_1" arrivalPos="4800.00" arrivalSpeed="32.97" duration="164.40" routeLength="4951.17" waitingTime="0.00" waitingCount="0" stopTime="0.00" timeLoss="16.51" rerouteNo="0" devices="tripinfo_CVToC.23 routing_CVToC.23 ssm_CVToC.23 toc_CVToC.23 driverstateCVToC.23" vType="vehLVOS394" speedFactor="0.93" vaporized=""/>
    <tripinfo id="CVToC.19" depart="66.00" departLane="entry_0" departPos="38.75" departSpeed="31.79" departDelay="3.20" arrival="243.40" arrivalLane="e0_0" arrivalPos="4800.00" arrivalSpeed="32.55" duration="177.40" routeLength="4961.25" waitingTime="0.00" waitingCount="0" stopTime="0.00" timeLoss="45.75" rerouteNo="0" devices="tripinfo_CVToC.19 routing_CVToC.19 ssm_CVToC.19 toc_CVToC.19 driverstateCVToC.19" vType="vehLVOS347" speedFactor="1.04" vaporized=""/>