<?xml version="1.0" encoding="UTF-8"?>

<!-- generated on Thu Aug 27 10:49:17 2020 by Eclipse SUMO sumo Version v1_6_0+1341-81c8bfe906
<configuration xmlns:xsi="http://www.w3.org/2001/XMLSchema-instance" xsi:noNamespaceSchemaLocation="http://sumo.dlr.de/xsd/sumoConfiguration.xsd">

    <input>
        <net-file value="scenario/UC5_1.net.xml"/>
        <route-files value="scenario/routes_trafficMix_0_trafficDemand_1_driverBehaviour_OS_seed_0.xml"/>
        <additional-files value="scenario/additionalsOutput_trafficMix_0_trafficDemand_1_driverBehaviour_OS_seed_0.xml,scenario/vTypesCAVToC_OS.add.xml,scenario/vTypesCVToC_OS.add.xml,scenario/vTypesLV_OS.add.xml,scenario/shapes.add.xml,scenario/view.add.xml"/>
    </input>

    <output>
        <tripinfo-output value="/home/anoulis/workspace/tor-distribution/outputs/simulations/DQN__2020-08-26_22-11-43__20200827-094847/tripinfo_9.xml"/>
    </output>

    <time>
        <step-length value="0.1"/>
    </time>

    <processing>
        <step-method.ballistic value="true"/>
        <ignore-route-errors value="true"/>
        <lanechange.duration value="2.5"/>
    </processing>

    <report>
        <no-step-log value="true"/>
    </report>

    <toc_device>
        <device.toc.ogNewTimeHeadway value="100"/>
        <device.toc.ogNewSpaceHeadway value="5"/>
        <device.toc.ogMaxDecel value="1"/>
        <device.toc.ogChangeRate value="1"/>
    </toc_device>

    <traci_server>
        <remote-port value="48575"/>
    </traci_server>

    <random_number>
        <seed value="1033"/>
    </random_number>

    <gui_only>
        <tracker-interval value="0.1"/>
    </gui_only>

</configuration>
-->

<tripinfos xmlns:xsi="http://www.w3.org/2001/XMLSchema-instance" xsi:noNamespaceSchemaLocation="http://sumo.dlr.de/xsd/tripinfo_file.xsd">
    <tripinfo id="CAVToC.1" depart="3.70" departLane="entry_1" departPos="199.90" departSpeed="35.60" departDelay="0.00" arrival="129.90" arrivalLane="e0_0" arrivalPos="4800.00" arrivalSpeed="40.37" duration="126.20" routeLength="4800.10" waitingTime="0.00" waitingCount="0" stopTime="0.00" timeLoss="7.52" rerouteNo="0" devices="tripinfo_CAVToC.1 routing_CAVToC.1 ssm_CAVToC.1 toc_CAVToC.1 driverstateCAVToC.1" vType="vehLVOS374" speedFactor="1.12" vaporized=""/>
    <tripinfo id="CAVToC.2" depart="5.00" departLane="entry_1" departPos="153.29" departSpeed="35.54" departDelay="0.00" arrival="130.50" arrivalLane="e0_1" arrivalPos="4800.00" arrivalSpeed="42.09" duration="125.50" routeLength="4846.71" waitingTime="0.00" waitingCount="0" stopTime="0.00" timeLoss="10.27" rerouteNo="0" devices="tripinfo_CAVToC.2 routing_CAVToC.2 ssm_CAVToC.2 toc_CAVToC.2 driverstateCAVToC.2" vType="vehLVOS746" speedFactor="1.17" vaporized=""/>
    <tripinfo id="CVToC.0" depart="0.30" departLane="entry_0" departPos="199.90" departSpeed="36.57" departDelay="0.00" arrival="131.80" arrivalLane="e0_0" arrivalPos="4800.00" arrivalSpeed="36.42" duration="131.50" routeLength="4800.10" waitingTime="0.00" waitingCount="0" stopTime="0.00" timeLoss="0.21" rerouteNo="0" devices="tripinfo_CVToC.0 routing_CVToC.0 ssm_CVToC.0 toc_CVToC.0 driverstateCVToC.0" vType="vehLVOS588" speedFactor="1.01" vaporized=""/>
    <tripinfo id="CAVToC.0" depart="1.10" departLane="entry_1" departPos="199.90" departSpeed="34.84" departDelay="0.00" arrival="139.10" arrivalLane="e0_0" arrivalPos="4800.00" arrivalSpeed="34.78" duration="138.00" routeLength="4800.10" waitingTime="0.00" waitingCount="0" stopTime="0.00" timeLoss="0.14" rerouteNo="0" devices="tripinfo_CAVToC.0 routing_CAVToC.0 ssm_CAVToC.0 toc_CAVToC.0 driverstateCAVToC.0" vType="vehLVOS22" speedFactor="0.96" vaporized=""/>
    <tripinfo id="CVToC.2" depart="5.10" departLane="entry_1" departPos="81.70" departSpeed="35.72" departDelay="0.00" arrival="141.40" arrivalLane="e0_0" arrivalPos="4800.00" arrivalSpeed="36.39" duration="136.30" routeLength="4918.30" waitingTime="0.00" waitingCount="0" stopTime="0.00" timeLoss="1.13" rerouteNo="0" devices="tripinfo_CVToC.2 routing_CVToC.2 ssm_CVToC.2 toc_CVToC.2 driverstateCVToC.2" vType="vehLVOS292" speedFactor="1.01" vaporized=""/>
    <tripinfo id="CVToC.1" depart="2.60" departLane="entry_0" departPos="199.90" departSpeed="34.22" departDelay="0.00" arrival="143.00" arrivalLane="e0_0" arrivalPos="4800.00" arrivalSpeed="34.20" duration="140.40" routeLength="4800.10" waitingTime="0.00" waitingCount="0" stopTime="0.00" timeLoss="0.10" rerouteNo="0" devices="tripinfo_CVToC.1 routing_CVToC.1 ssm_CVToC.1 toc_CVToC.1 driverstateCVToC.1" vType="vehLVOS968" speedFactor="0.95" vaporized=""/>
    <tripinfo id="CAVToC.3" depart="5.40" departLane="entry_1" departPos="6.43" departSpeed="36.13" departDelay="0.00" arrival="145.10" arrivalLane="e0_1" arrivalPos="4800.00" arrivalSpeed="38.89" duration="139.70" routeLength="4993.57" waitingTime="0.00" waitingCount="0" stopTime="0.00" timeLoss="11.29" rerouteNo="0" devices="tripinfo_CAVToC.3 routing_CAVToC.3 ssm_CAVToC.3 toc_CAVToC.3 driverstateCAVToC.3" vType="vehLVOS277" speedFactor="1.08" vaporized=""/>
    <tripinfo id="CAVToC.6" depart="9.60" departLane="entry_1" departPos="78.32" departSpeed="35.06" departDelay="0.00" arrival="149.00" arrivalLane="e0_1" arrivalPos="4800.00" arrivalSpeed="35.75" duration="139.40" routeLength="4921.68" waitingTime="0.00" waitingCount="0" stopTime="0.00" timeLoss="1.90" rerouteNo="0" devices="tripinfo_CAVToC.6 routing_CAVToC.6 ssm_CAVToC.6 toc_CAVToC.6 driverstateCAVToC.6" vType="vehLVOS672" speedFactor="0.99" vaporized=""/>
    <tripinfo id="CVToC.3" depart="6.80" departLane="entry_0" departPos="199.90" departSpeed="33.72" departDelay="0.20" arrival="149.90" arrivalLane="e0_0" arrivalPos="4800.00" arrivalSpeed="33.72" duration="143.10" routeLength="4800.10" waitingTime="0.00" waitingCount="0" stopTime="0.00" timeLoss="0.71" rerouteNo="0" devices="tripinfo_CVToC.3 routing_CVToC.3 ssm_CVToC.3 toc_CVToC.3 driverstateCVToC.3" vType="vehLVOS844" speedFactor="0.93" vaporized=""/>
    <tripinfo id="CAVToC.8" depart="11.90" departLane="entry_1" departPos="67.04" departSpeed="31.02" departDelay="0.00" arrival="150.50" arrivalLane="e0_1" arrivalPos="4800.00" arrivalSpeed="37.55" duration="138.60" routeLength="4932.96" waitingTime="0.00" waitingCount="0" stopTime="0.00" timeLoss="7.25" rerouteNo="0" devices="tripinfo_CAVToC.8 routing_CAVToC.8 ssm_CAVToC.8 toc_CAVToC.8 driverstateCAVToC.8" vType="vehLVOS602" speedFactor="1.04" vaporized=""/>
    <tripinfo id="CAVToC.4" depart="6.90" departLane="entry_0" departPos="112.30" departSpeed="34.77" departDelay="0.00" arrival="151.80" arrivalLane="e0_0" arrivalPos="4800.00" arrivalSpeed="40.38" duration="144.90" routeLength="4887.70" waitingTime="0.00" waitingCount="0" stopTime="0.00" timeLoss="32.26" rerouteNo="0" devices="tripinfo_CAVToC.4 routing_CAVToC.4 ssm_CAVToC.4 toc_CAVToC.4 driverstateCAVToC.4" vType="vehLVOS376" speedFactor="1.20" vaporized=""/>
    <tripinfo id="CAVToC.10" depart="15.00" departLane="entry_1" departPos="0.56" departSpeed="29.68" departDelay="0.90" arrival="154.60" arrivalLane="e0_1" arrivalPos="4800.00" arrivalSpeed="38.17" duration="139.60" routeLength="4999.44" waitingTime="0.00" waitingCount="0" stopTime="0.00" timeLoss="8.72" rerouteNo="0" devices="tripinfo_CAVToC.10 routing_CAVToC.10 ssm_CAVToC.10 toc_CAVToC.10 driverstateCAVToC.10" vType="vehLVOS280" speedFactor="1.06" vaporized=""/>
    <tripinfo id="CAVToC.5" depart="9.20" departLane="entry_0" departPos="120.36" departSpeed="33.98" departDelay="0.00" arrival="155.60" arrivalLane="e0_0" arrivalPos="4800.00" arrivalSpeed="34.94" duration="146.40" routeLength="4879.64" waitingTime="0.00" waitingCount="0" stopTime="0.00" timeLoss="6.91" rerouteNo="0" devices="tripinfo_CAVToC.5 routing_CAVToC.5 ssm_CAVToC.5 toc_CAVToC.5 driverstateCAVToC.5" vType="vehLVOS29" speedFactor="0.97" vaporized=""/>
    <tripinfo id="LV.1" depart="12.30" departLane="entry_1" departPos="3.11" departSpeed="35.19" departDelay="0.10" arrival="158.30" arrivalLane="e0_0" arrivalPos="4800.00" arrivalSpeed="35.18" duration="146.00" routeLength="4996.89" waitingTime="0.00" waitingCount="0" stopTime="0.00" timeLoss="3.95" rerouteNo="0" devices="tripinfo_LV.1 routing_LV.1 ssm_LV.1" vType="vehLVOS439" speedFactor="0.97" vaporized=""/>
    <tripinfo id="CVToC.6" depart="17.60" departLane="entry_1" departPos="0.05" departSpeed="30.21" departDelay="0.30" arrival="164.40" arrivalLane="e0_0" arrivalPos="4800.00" arrivalSpeed="35.14" duration="146.80" routeLength="4999.95" waitingTime="0.00" waitingCount="0" stopTime="0.00" timeLoss="4.56" rerouteNo="0" devices="tripinfo_CVToC.6 routing_CVToC.6 ssm_CVToC.6 toc_CVToC.6 driverstateCVToC.6" vType="vehLVOS52" speedFactor="0.97" vaporized=""/>
    <tripinfo id="CAVToC.7" depart="11.20" departLane="entry_0" departPos="31.29" departSpeed="33.75" departDelay="0.00" arrival="165.60" arrivalLane="e0_1" arrivalPos="4800.00" arrivalSpeed="35.48" duration="154.40" routeLength="4968.71" waitingTime="0.00" waitingCount="0" stopTime="0.00" timeLoss="14.53" rerouteNo="0" devices="tripinfo_CAVToC.7 routing_CAVToC.7 ssm_CAVToC.7 toc_CAVToC.7 driverstateCAVToC.7" vType="vehLVOS198" speedFactor="0.98" vaporized=""/>
    <tripinfo id="CVToC.4" depart="9.50" departLane="entry_0" departPos="50.20" departSpeed="34.46" departDelay="0.00" arrival="166.50" arrivalLane="e0_1" arrivalPos="4800.00" arrivalSpeed="36.52" duration="157.00" routeLength="4949.80" waitingTime="0.00" waitingCount="0" stopTime="0.00" timeLoss="26.95" rerouteNo="0" devices="tripinfo_CVToC.4 routing_CVToC.4 ssm_CVToC.4 toc_CVToC.4 driverstateCVToC.4" vType="vehLVOS777" speedFactor="1.05" vaporized=""/>
    <tripinfo id="LV.0" depart="10.90" departLane="entry_1" departPos="116.32" departSpeed="30.25" departDelay="0.00" arrival="173.20" arrivalLane="e0_0" arrivalPos="4800.00" arrivalSpeed="30.23" duration="162.30" routeLength="4883.68" waitingTime="0.00" waitingCount="0" stopTime="0.00" timeLoss="0.88" rerouteNo="0" devices="tripinfo_LV.0 routing_LV.0 ssm_LV.0" vType="vehLVOS145" speedFactor="0.84" vaporized=""/>
    <tripinfo id="CAVToC.12" depart="22.90" departLane="entry_1" departPos="12.18" departSpeed="30.24" departDelay="0.60" arrival="184.30" arrivalLane="e0_1" arrivalPos="4800.00" arrivalSpeed="34.89" duration="161.40" routeLength="4987.82" waitingTime="0.00" waitingCount="0" stopTime="0.00" timeLoss="18.75" rerouteNo="0" devices="tripinfo_CAVToC.12 routing_CAVToC.12 ssm_CAVToC.12 toc_CAVToC.12 driverstateCAVToC.12" vType="vehLVOS29" speedFactor="0.97" vaporized=""/>
    <tripinfo id="CAVToC.11" depart="20.40" departLane="entry_1" departPos="15.80" departSpeed="30.19" departDelay="0.60" arrival="184.80" arrivalLane="e0_0" arrivalPos="4800.00" arrivalSpeed="31.38" duration="164.40" routeLength="4984.20" waitingTime="0.00" waitingCount="0" stopTime="0.00" timeLoss="5.81" rerouteNo="0" devices="tripinfo_CAVToC.11 routing_CAVToC.11 ssm_CAVToC.11 toc_CAVToC.11 driverstateCAVToC.11" vType="vehLVOS508" speedFactor="0.87" vaporized=""/>
    <tripinfo id="LV.6" depart="30.30" departLane="entry_1" departPos="23.22" departSpeed="36.01" departDelay="0.90" arrival="186.60" arrivalLane="e0_1" arrivalPos="4800.00" arrivalSpeed="35.90" duration="156.30" routeLength="4976.78" waitingTime="0.00" waitingCount="0" stopTime="0.00" timeLoss="18.04" rerouteNo="0" devices="tripinfo_LV.6 routing_LV.6 ssm_LV.6" vType="vehLVOS339" speedFactor="1.00" vaporized=""/>
    <tripinfo id="CAVToC.16" depart="33.40" departLane="entry_1" departPos="54.10" departSpeed="32.93" departDelay="1.10" arrival="187.80" arrivalLane="e0_1" arrivalPos="4800.00" arrivalSpeed="34.63" duration="154.40" routeLength="4945.90" waitingTime="0.00" waitingCount="0" stopTime="0.00" timeLoss="11.58" rerouteNo="0" devices="tripinfo_CAVToC.16 routing_CAVToC.16 ssm_CAVToC.16 toc_CAVToC.16 driverstateCAVToC.16" vType="vehLVOS853" speedFactor="0.96" vaporized=""/>
    <tripinfo id="LV.2" depart="14.60" departLane="entry_1" departPos="74.88" departSpeed="28.65" departDelay="0.00" arrival="187.90" arrivalLane="e0_0" arrivalPos="4800.00" arrivalSpeed="28.64" duration="173.30" routeLength="4925.12" waitingTime="0.00" waitingCount="0" stopTime="0.00" timeLoss="1.31" rerouteNo="0" devices="tripinfo_LV.2 routing_LV.2 ssm_LV.2" vType="vehLVOS14" speedFactor="0.79" vaporized=""/>
    <tripinfo id="LV.5" depart="32.60" departLane="entry_0" departPos="7.49" departSpeed="41.55" departDelay="8.70" arrival="189.20" arrivalLane="e0_1" arrivalPos="4800.00" arrivalSpeed="36.88" duration="156.60" routeLength="4992.51" waitingTime="0.00" waitingCount="0" stopTime="0.00" timeLoss="36.44" rerouteNo="0" devices="tripinfo_LV.5 routing_LV.5 ssm_LV.5" vType="vehLVOS788" speedFactor="1.15" vaporized=""/>
    <tripinfo id="CAVToC.18" depart="34.50" departLane="entry_1" departPos="4.61" departSpeed="33.28" departDelay="1.30" arrival="190.30" arrivalLane="e0_1" arrivalPos="4800.00" arrivalSpeed="36.58" duration="155.80" routeLength="4995.39" waitingTime="0.00" waitingCount="0" stopTime="0.00" timeLoss="31.83" rerouteNo="0" devices="tripinfo_CAVToC.18 routing_CAVToC.18 ssm_CAVToC.18 toc_CAVToC.18 driverstateCAVToC.18" vType="vehLVOS996" speedFactor="1.12" vaporized=""/>
    <tripinfo id="CAVToC.9" depart="13.60" departLane="entry_0" departPos="7.80" departSpeed="31.25" departDelay="0.00" arrival="191.50" arrivalLane="e0_0" arrivalPos="4800.00" arrivalSpeed="31.94" duration="177.90" routeLength="4992.20" waitingTime="0.00" waitingCount="0" stopTime="0.00" timeLoss="65.62" rerouteNo="0" devices="tripinfo_CAVToC.9 routing_CAVToC.9 ssm_CAVToC.9 toc_CAVToC.9 driverstateCAVToC.9" vType="vehLVOS502" speedFactor="1.23" vaporized=""/>
    <tripinfo id="CVToC.5" depart="16.50" departLane="entry_0" departPos="1.94" departSpeed="27.45" departDelay="0.30" arrival="193.10" arrivalLane="e0_0" arrivalPos="4800.00" arrivalSpeed="33.90" duration="176.60" routeLength="4998.06" waitingTime="0.00" waitingCount="0" stopTime="0.00" timeLoss="53.79" rerouteNo="0" devices="tripinfo_CVToC.5 routing_CVToC.5 ssm_CVToC.5 toc_CVToC.5 driverstateCVToC.5" vType="vehLVOS703" speedFactor="1.13" vaporized=""/>
    <tripinfo id="CAVToC.17" depart="34.70" departLane="entry_0" departPos="12.74" departSpeed="34.88" departDelay="1.90" arrival="193.60" arrivalLane="e0_1" arrivalPos="4800.00" arrivalSpeed="35.83" duration="158.90" routeLength="4987.26" waitingTime="0.00" waitingCount="0" stopTime="0.00" timeLoss="19.67" rerouteNo="0" devices="tripinfo_CAVToC.17 routing_CAVToC.17 ssm_CAVToC.17 toc_CAVToC.17 driverstateCAVToC.17" vType="vehLVOS298" speedFactor="0.99" vaporized=""/>
    <tripinfo id="CVToC.7" depart="20.10" departLane="entry_0" departPos="15.28" departSpeed="28.44" departDelay="1.70" arrival="195.00" arrivalLane="e0_0" arrivalPos="4800.00" arrivalSpeed="33.64" duration="174.90" routeLength="4984.72" waitingTime="0.00" waitingCount="0" stopTime="0.00" timeLoss="51.44" rerouteNo="0" devices="tripinfo_CVToC.7 routing_CVToC.7 ssm_CVToC.7 toc_CVToC.7 driverstateCVToC.7" vType="vehLVOS74" speedFactor="1.12" vaporized=""/>
    <tripinfo id="CAVToC.14" depart="28.00" departLane="entry_0" departPos="87.45" departSpeed="25.90" departDelay="0.40" arrival="195.40" arrivalLane="e0_1" arrivalPos="4800.00" arrivalSpeed="32.34" duration="167.40" routeLength="4912.55" waitingTime="0.00" waitingCount="0" stopTime="0.00" timeLoss="16.03" rerouteNo="0" devices="tripinfo_CAVToC.14 routing_CAVToC.14 ssm_CAVToC.14 toc_CAVToC.14 driverstateCAVToC.14" vType="vehLVOS422" speedFactor="0.90" vaporized=""/>
    <tripinfo id="CAVToC.15" depart="28.10" departLane="entry_1" departPos="92.78" departSpeed="28.40" departDelay="0.00" arrival="196.50" arrivalLane="e0_0" arrivalPos="4800.00" arrivalSpeed="31.82" duration="168.40" routeLength="4907.22" waitingTime="0.00" waitingCount="0" stopTime="0.00" timeLoss="14.34" rerouteNo="0" devices="tripinfo_CAVToC.15 routing_CAVToC.15 ssm_CAVToC.15 toc_CAVToC.15 driverstateCAVToC.15" vType="vehLVOS452" speedFactor="0.88" vaporized=""/>
    <tripinfo id="CAVToC.13" depart="24.50" departLane="entry_0" departPos="69.85" departSpeed="26.50" departDelay="0.70" arrival="200.70" arrivalLane="e0_0" arrivalPos="4800.00" arrivalSpeed="29.29" duration="176.20" routeLength="4930.15" waitingTime="0.00" waitingCount="0" stopTime="0.00" timeLoss="8.01" rerouteNo="0" devices="tripinfo_CAVToC.13 routing_CAVToC.13 ssm_CAVToC.13 toc_CAVToC.13 driverstateCAVToC.13" vType="vehLVOS123" speedFactor="0.81" vaporized=""/>
    <tripinfo id="CAVToC.19" depart="37.30" departLane="entry_1" departPos="37.71" departSpeed="28.24" departDelay="1.10" arrival="218.20" arrivalLane="e0_1" arrivalPos="4800.00" arrivalSpeed="28.21" duration="180.90" routeLength="4962.29" waitingTime="0.00" waitingCount="0" stopTime="0.00" timeLoss="5.08" rerouteNo="0" devices="tripinfo_CAVToC.19 routing_CAVToC.19 ssm_CAVToC.19 toc_CAVToC.19 driverstateCAVToC.19" vType="vehLVOS565" speedFactor="0.78" vaporized=""/>
    <tripinfo id="CVToC.8" depart="39.70" departLane="entry_1" departPos="3.35" departSpeed="30.16" departDelay="7.10" arrival="219.50" arrivalLane="e0_1" arrivalPos="4800.00" arrivalSpeed="29.38" duration="179.80" routeLength="4996.65" waitingTime="0.00" waitingCount="0" stopTime="0.00" timeLoss="71.53" rerouteNo="0" devices="tripinfo_CVToC.8 routing_CVToC.8 ssm_CVToC.8 toc_CVToC.8 driverstateCVToC.8" vType="vehLVOS738" speedFactor="1.28" vaporized=""/>
    <tripinfo id="CVToC.9" depart="36.70" departLane="entry_0" departPos="0.92" departSpeed="31.52" departDelay="1.90" arrival="219.60" arrivalLane="e0_0" arrivalPos="4800.00" arrivalSpeed="29.46" duration="182.90" routeLength="4999.08" waitingTime="0.00" waitingCount="0" stopTime="0.00" timeLoss="39.23" rerouteNo="0" devices="tripinfo_CVToC.9 routing_CVToC.9 ssm_CVToC.9 toc_CVToC.9 driverstateCVToC.9" vType="vehLVOS844" speedFactor="0.96" vaporized=""/>
    <tripinfo id="CAVToC.21" depart="42.50" departLane="entry_1" departPos="1.22" departSpeed="29.90" departDelay="2.50" arrival="221.20" arrivalLane="e0_1" arrivalPos="4800.00" arrivalSpeed="30.99" duration="178.70" routeLength="4998.78" waitingTime="0.00" waitingCount="0" stopTime="0.00" timeLoss="47.81" rerouteNo="0" devices="tripinfo_CAVToC.21 routing_CAVToC.21 ssm_CAVToC.21 toc_CAVToC.21 driverstateCAVToC.21" vType="vehLVOS951" speedFactor="1.06" vaporized=""/>
    <tripinfo id="CVToC.12" depart="46.70" departLane="entry_1" departPos="56.66" departSpeed="26.56" departDelay="1.50" arrival="222.30" arrivalLane="e0_1" arrivalPos="4800.00" arrivalSpeed="28.80" duration="175.60" routeLength="4943.34" waitingTime="0.00" waitingCount="0" stopTime="0.00" timeLoss="4.26" rerouteNo="0" devices="tripinfo_CVToC.12 routing_CVToC.12 ssm_CVToC.12 toc_CVToC.12 driverstateCVToC.12" vType="vehLVOS857" speedFactor="0.80" vaporized=""/>
    <tripinfo id="CVToC.13" depart="47.90" departLane="entry_1" departPos="0.25" departSpeed="27.40" departDelay="1.80" arrival="223.70" arrivalLane="e0_1" arrivalPos="4800.00" arrivalSpeed="31.85" duration="175.80" routeLength="4999.75" waitingTime="0.00" waitingCount="0" stopTime="0.00" timeLoss="48.73" rerouteNo="0" devices="tripinfo_CVToC.13 routing_CVToC.13 ssm_CVToC.13 toc_CVToC.13 driverstateCVToC.13" vType="vehLVOS78" speedFactor="1.09" vaporized=""/>
    <tripinfo id="CVToC.10" depart="40.20" departLane="entry_0" departPos="20.90" departSpeed="26.65" departDelay="1.00" arrival="223.80" arrivalLane="e0_0" arrivalPos="4800.00" arrivalSpeed="30.64" duration="183.60" routeLength="4979.10" waitingTime="0.00" waitingCount="0" stopTime="0.00" timeLoss="48.04" rerouteNo="0" devices="tripinfo_CVToC.10 routing_CVToC.10 ssm_CVToC.10 toc_CVToC.10 driverstateCVToC.10" vType="vehLVOS837" speedFactor="1.02" vaporized=""/>
    <tripinfo id="CAVToC.23" depart="50.90" departLane="entry_1" departPos="7.31" departSpeed="27.31" departDelay="3.20" arrival="224.70" arrivalLane="e0_1" arrivalPos="4800.00" arrivalSpeed="32.03" duration="173.80" routeLength="4992.69" waitingTime="0.00" waitingCount="0" stopTime="0.00" timeLoss="25.18" rerouteNo="0" devices="tripinfo_CAVToC.23 routing_CAVToC.23 ssm_CAVToC.23 toc_CAVToC.23 driverstateCAVToC.23" vType="vehLVOS252" speedFactor="0.93" vaporized=""/>
    <tripinfo id="CAVToC.20" depart="43.80" departLane="entry_0" departPos="42.72" departSpeed="25.12" departDelay="4.20" arrival="225.20" arrivalLane="e0_0" arrivalPos="4800.00" arrivalSpeed="32.18" duration="181.40" routeLength="4957.28" waitingTime="0.00" waitingCount="0" stopTime="0.00" timeLoss="28.87" rerouteNo="0" devices="tripinfo_CAVToC.20 routing_CAVToC.20 ssm_CAVToC.20 toc_CAVToC.20 driverstateCAVToC.20" vType="vehLVOS267" speedFactor="0.90" vaporized=""/>
    <tripinfo id="CVToC.11" depart="45.40" departLane="entry_0" departPos="2.05" departSpeed="25.67" departDelay="3.90" arrival="227.00" arrivalLane="e0_0" arrivalPos="4800.00" arrivalSpeed="32.95" duration="181.60" routeLength="4997.95" waitingTime="0.00" waitingCount="0" stopTime="0.00" timeLoss="49.71" rerouteNo="0" devices="tripinfo_CVToC.11 routing_CVToC.11 ssm_CVToC.11 toc_CVToC.11 driverstateCVToC.11" vType="vehLVOS781" speedFactor="1.05" vaporized=""/>
    <tripinfo id="LV.8" depart="56.10" departLane="entry_1" departPos="0.59" departSpeed="32.88" departDelay="8.00" arrival="227.60" arrivalLane="e0_1" arrivalPos="4800.00" arrivalSpeed="32.80" duration="171.50" routeLength="4999.41" waitingTime="0.00" waitingCount="0" stopTime="0.00" timeLoss="19.37" rerouteNo="0" devices="tripinfo_LV.8 routing_LV.8 ssm_LV.8" vType="vehLVOS256" speedFactor="0.91" vaporized=""/>
    <tripinfo id="CAVToC.24" depart="58.90" departLane="entry_1" departPos="16.46" departSpeed="32.36" departDelay="9.10" arrival="229.50" arrivalLane="e0_1" arrivalPos="4800.00" arrivalSpeed="33.60" duration="170.60" routeLength="4983.54" waitingTime="0.00" waitingCount="0" stopTime="0.00" timeLoss="22.27" rerouteNo="0" devices="tripinfo_CAVToC.24 routing_CAVToC.24 ssm_CAVToC.24 toc_CAVToC.24 driverstateCAVToC.24" vType="vehLVOS122" speedFactor="0.93" vaporized=""/>
    <tripinfo id="CAVToC.22" depart="49.00" departLane="entry_0" departPos="5.73" departSpeed="24.00" departDelay="2.30" arrival="230.20" arrivalLane="e0_0" arrivalPos="4800.00" arrivalSpeed="33.49" duration="181.20" routeLength="4994.27" waitingTime="0.00" waitingCount="0" stopTime="0.00" timeLoss="49.61" rerouteNo="0" devices="tripinfo_CAVToC.22 routing_CAVToC.22 ssm_CAVToC.22 toc_CAVToC.22 driverstateCAVToC.22" vType="vehLVOS699" speedFactor="1.05" vaporized=""/>
    <tripinfo id="CAVToC.26" depart="61.90" departLane="entry_1" departPos="29.32" departSpeed="31.59" departDelay="10.20" arrival="231.00" arrivalLane="e0_1" arrivalPos="4800.00" arrivalSpeed="35.78" duration="169.10" routeLength="4970.68" waitingTime="0.00" waitingCount="0" stopTime="0.00" timeLoss="41.99" rerouteNo="0" devices="tripinfo_CAVToC.26 routing_CAVToC.26 ssm_CAVToC.26 toc_CAVToC.26 driverstateCAVToC.26" vType="vehLVOS114" speedFactor="1.08" vaporized=""/>
    <tripinfo id="CVToC.15" depart="54.30" departLane="entry_0" departPos="38.75" departSpeed="23.44" departDelay="4.70" arrival="231.60" arrivalLane="e0_0" arrivalPos="4800.00" arrivalSpeed="34.40" duration="177.30" routeLength="4961.25" waitingTime="0.00" waitingCount="0" stopTime="0.00" timeLoss="45.41" rerouteNo="0" devices="tripinfo_CVToC.15 routing_CVToC.15 ssm_CVToC.15 toc_CVToC.15 driverstateCVToC.15" vType="vehLVOS217" speedFactor="1.04" vaporized=""/>
    <tripinfo id="CVToC.14" depart="56.80" departLane="entry_0" departPos="24.46" departSpeed="24.35" departDelay="7.30" arrival="232.50" arrivalLane="e0_0" arrivalPos="4800.00" arrivalSpeed="33.80" duration="175.70" routeLength="4975.54" waitingTime="0.00" waitingCount="0" stopTime="0.00" timeLoss="28.53" rerouteNo="0" devices="tripinfo_CVToC.14 routing_CVToC.14 ssm_CVToC.14 toc_CVToC.14 driverstateCVToC.14" vType="vehLVOS966" speedFactor="0.94" vaporized=""/>
    <tripinfo id="CAVToC.25" depart="59.30" departLane="entry_0" departPos="1.82" departSpeed="25.28" departDelay="9.00" arrival="233.50" arrivalLane="e0_0" arrivalPos="4800.00" arrivalSpeed="35.34" duration="174.20" routeLength="4998.18" waitingTime="0.00" waitingCount="0" stopTime="0.00" timeLoss="40.03" rerouteNo="0" devices="tripinfo_CAVToC.25 routing_CAVToC.25 ssm_CAVToC.25 toc_CAVToC.25 driverstateCAVToC.25" vType="vehLVOS489" speedFactor="1.03" vaporized=""/>
    <tripinfo id="CVToC.17" depart="63.40" departLane="entry_1" departPos="7.17" departSpeed="31.25" departDelay="8.40" arrival="233.90" arrivalLane="e0_1" arrivalPos="4800.00" arrivalSpeed="33.35" duration="170.50" routeLength="4992.83" waitingTime="0.00" waitingCount="0" stopTime="0.00" timeLoss="20.77" rerouteNo="0" devices="tripinfo_CVToC.17 routing_CVToC.17 ssm_CVToC.17 toc_CVToC.17 driverstateCVToC.17" vType="vehLVOS716" speedFactor="0.92" vaporized=""/>
    <tripinfo id="CVToC.18" depart="64.20" departLane="entry_0" departPos="29.30" departSpeed="25.59" departDelay="6.80" arrival="235.40" arrivalLane="e0_1" arrivalPos="4800.00" arrivalSpeed="37.14" duration="171.20" routeLength="4970.70" waitingTime="0.00" waitingCount="0" stopTime="0.00" timeLoss="47.63" rerouteNo="0" devices="tripinfo_CVToC.18 routing_CVToC.18 ssm_CVToC.18 toc_CVToC.18 driverstateCVToC.18" vType="vehLVOS938" speedFactor="1.11" vaporized=""/>
    <tripinfo id="LV.11" depart="69.10" departLane="entry_1" departPos="24.04" departSpeed="34.05" departDelay="5.60" arrival="236.50" arrivalLane="e0_1" arrivalPos="4800.00" arrivalSpeed="34.05" duration="167.40" routeLength="4975.96" waitingTime="0.00" waitingCount="0" stopTime="0.00" timeLoss="21.24" rerouteNo="0" devices="tripinfo_LV.11 routing_LV.11 ssm_LV.11" vType="vehLVOS311" speedFactor="0.94" vaporized=""/>
    <tripinfo id="CAVToC.28" depart="66.50" departLane="entry_1" departPos="31.41" departSpeed="29.91" departDelay="12.40" arrival="236.70" arrivalLane="e0_0" arrivalPos="4800.00" arrivalSpeed="32.53" duration="170.20" routeLength="4968.59" waitingTime="0.00" waitingCount="0" stopTime="0.00" timeLoss="17.42" rerouteNo="0" devices="tripinfo_CAVToC.28 routing_CAVToC.28 ssm_CAVToC.28 toc_CAVToC.28 driverstateCAVToC.28" vType="vehLVOS49" speedFactor="0.90" vaporized=""/>
    <tripinfo id="CVToC.16" depart="71.70" departLane="entry_1" departPos="32.74" departSpeed="31.93" departDelay="19.90" arrival="239.80" arrivalLane="e0_1" arrivalPos="4800.00" arrivalSpeed="35.25" duration="168.10" routeLength="4967.26" waitingTime="0.00" waitingCount="0" stopTime="0.00" timeLoss="27.34" rerouteNo="0" devices="tripinfo_CVToC.16 routing_CVToC.16 ssm_CVToC.16 toc_CVToC.16 driverstateCVToC.16" vType="vehLVOS265" speedFactor="0.98" vaporized=""/>
    <tripinfo id="LV.9" depart="66.00" departLane="entry_0" departPos="13.72" departSpeed="28.15" departDelay="3.30" arrival="250.80" arrivalLane="e0_0" arrivalPos="4800.00" arrivalSpeed="28.07" duration="184.80" routeLength="4986.28" waitingTime="0.00" waitingCount="0" stopTime="0.00" timeLoss="7.61" rerouteNo="0" devices="tripinfo_LV.9 routing_LV.9 ssm_LV.9" vType="vehLVOS227" speedFactor="0.78" vaporized=""/>
    <tripinfo id="LV.10" depart="72.70" departLane="entry_1" departPos="53.76" departSpeed="28.40" departDelay="9.30" arrival="251.90" arrivalLane="e0_1" arrivalPos="4800.00" arrivalSpeed="28.36" duration="179.20" routeLength="4946.24" waitingTime="0.00" waitingCount="0" stopTime="0.00" timeLoss="5.03" rerouteNo="0" devices="tripinfo_LV.10 routing_LV.10 ssm_LV.10" vType="vehLVOS690" speedFactor="0.79" vaporized=""/>
    <tripinfo id="CAVToC.27" depart="68.40" departLane="entry_0" departPos="5.83" departSpeed="27.90" departDelay="15.70" arrival="253.00" arrivalLane="e0_0" arrivalPos="4800.00" arrivalSpeed="31.07" duration="184.60" routeLength="4994.17" waitingTime="0.00" waitingCount="0" stopTime="0.00" timeLoss="32.45" rerouteNo="0" devices="tripinfo_CAVToC.27 routing_CAVToC.27 ssm_CAVToC.27 toc_CAVToC.27 driverstateCAVToC.27" vType="vehLVOS181" speedFactor="0.91" vaporized=""/>
    <tripinfo id="CVToC.20" depart="74.90" departLane="entry_1" departPos="32.40" departSpeed="27.52" departDelay="11.30" arrival="253.00" arrivalLane="e0_1" arrivalPos="4800.00" arrivalSpeed="30.37" duration="178.10" routeLength="4967.60" waitingTime="0.00" waitingCount="0" stopTime="0.00" timeLoss="44.67" rerouteNo="0" devices="tripinfo_CVToC.20 routing_CVToC.20 ssm_CVToC.20 toc_CVToC.20 driverstateCVToC.20" vType="vehLVOS562" speedFactor="1.03" vaporized=""/>
    <tripinfo id="CVToC.19" depart="73.70" departLane="entry_0" departPos="72.17" departSpeed="24.01" departDelay="14.20" arrival="255.00" arrivalLane="e0_0" arrivalPos="4800.00" arrivalSpeed="31.62" duration="181.30" routeLength="4927.83" waitingTime="0.00" waitingCount="0" stopTime="0.00" timeLoss="30.72" rerouteNo="0" devices="tripinfo_CVToC.19 routing_CVToC.19 ssm_CVToC.19 toc_CVToC.19 driverstateCVToC.19" vType="vehLVOS846" speedFactor="0.91" vaporized=""/>
    <tripinfo id="CAVToC.30" depart="77.00" departLane="entry_1" departPos="4.05" departSpeed="27.33" departDelay="12.30" arrival="256.00" arrivalLane="e0_1" arrivalPos="4800.00" arrivalSpeed="33.62" duration="179.00" routeLength="4995.95" waitingTime="0.00" waitingCount="0" stopTime="0.00" timeLoss="44.84" rerouteNo="0" devices="tripinfo_CAVToC.30 routing_CAVToC.30 ssm_CAVToC.30 toc_CAVToC.30 driverstateCAVToC.30" vType="vehLVOS28" speedFactor="1.03" vaporized=""/>
    <tripinfo id="CVToC.21" depart="80.30" departLane="entry_1" departPos="11.45" departSpeed="26.55" departDelay="15.40" arrival="257.00" arrivalLane="e0_1" arrivalPos="4800.00" arrivalSpeed="31.55" duration="176.70" routeLength="4988.55" waitingTime="0.00" waitingCount="0" stopTime="0.00" timeLoss="44.22" rerouteNo="0" devices="tripinfo_CVToC.21 routing_CVToC.21 ssm_CVToC.21 toc_CVToC.21 driverstateCVToC.21" vType="vehLVOS5" speedFactor="1.04" vaporized=""/>