<?xml version="1.0" encoding="UTF-8"?>

<!-- generated on Thu Aug 27 10:19:25 2020 by Eclipse SUMO sumo Version v1_6_0+1341-81c8bfe906
<configuration xmlns:xsi="http://www.w3.org/2001/XMLSchema-instance" xsi:noNamespaceSchemaLocation="http://sumo.dlr.de/xsd/sumoConfiguration.xsd">

    <input>
        <net-file value="scenario/UC5_1.net.xml"/>
        <route-files value="scenario/routes_trafficMix_0_trafficDemand_1_driverBehaviour_OS_seed_0.xml"/>
        <additional-files value="scenario/additionalsOutput_trafficMix_0_trafficDemand_1_driverBehaviour_OS_seed_0.xml,scenario/vTypesCAVToC_OS.add.xml,scenario/vTypesCVToC_OS.add.xml,scenario/vTypesLV_OS.add.xml,scenario/shapes.add.xml,scenario/view.add.xml"/>
    </input>

    <output>
        <tripinfo-output value="/home/anoulis/workspace/tor-distribution/outputs/simulations/DQN__2020-08-26_22-11-43__20200827-094847/tripinfo_5.xml"/>
    </output>

    <time>
        <step-length value="0.1"/>
    </time>

    <processing>
        <step-method.ballistic value="true"/>
        <ignore-route-errors value="true"/>
        <lanechange.duration value="2.5"/>
    </processing>

    <report>
        <no-step-log value="true"/>
    </report>

    <toc_device>
        <device.toc.ogNewTimeHeadway value="100"/>
        <device.toc.ogNewSpaceHeadway value="5"/>
        <device.toc.ogMaxDecel value="1"/>
        <device.toc.ogChangeRate value="1"/>
    </toc_device>

    <traci_server>
        <remote-port value="39439"/>
    </traci_server>

    <random_number>
        <seed value="1029"/>
    </random_number>

    <gui_only>
        <tracker-interval value="0.1"/>
    </gui_only>

</configuration>
-->

<tripinfos xmlns:xsi="http://www.w3.org/2001/XMLSchema-instance" xsi:noNamespaceSchemaLocation="http://sumo.dlr.de/xsd/tripinfo_file.xsd">
    <tripinfo id="CVToC.0" depart="6.40" departLane="entry_0" departPos="199.90" departSpeed="40.78" departDelay="0.00" arrival="124.40" arrivalLane="e0_0" arrivalPos="4800.00" arrivalSpeed="40.76" duration="118.00" routeLength="4800.10" waitingTime="0.00" waitingCount="0" stopTime="0.00" timeLoss="0.23" rerouteNo="0" devices="tripinfo_CVToC.0 routing_CVToC.0 ssm_CVToC.0 toc_CVToC.0 driverstateCVToC.0" vType="vehLVOS899" speedFactor="1.13" vaporized=""/>
    <tripinfo id="CVToC.1" depart="7.60" departLane="entry_1" departPos="199.90" departSpeed="33.37" departDelay="0.00" arrival="151.70" arrivalLane="e0_1" arrivalPos="4800.00" arrivalSpeed="33.35" duration="144.10" routeLength="4800.10" waitingTime="0.00" waitingCount="0" stopTime="0.00" timeLoss="0.26" rerouteNo="0" devices="tripinfo_CVToC.1 routing_CVToC.1 ssm_CVToC.1 toc_CVToC.1 driverstateCVToC.1" vType="vehLVOS940" speedFactor="0.92" vaporized=""/>
    <tripinfo id="CVToC.2" depart="8.10" departLane="entry_0" departPos="192.80" departSpeed="36.48" departDelay="0.00" arrival="152.40" arrivalLane="e0_0" arrivalPos="4800.00" arrivalSpeed="34.51" duration="144.30" routeLength="4807.20" waitingTime="0.00" waitingCount="0" stopTime="0.00" timeLoss="12.44" rerouteNo="0" devices="tripinfo_CVToC.2 routing_CVToC.2 ssm_CVToC.2 toc_CVToC.2 driverstateCVToC.2" vType="vehLVOS335" speedFactor="1.01" vaporized=""/>
    <tripinfo id="CVToC.3" depart="11.40" departLane="entry_1" departPos="199.90" departSpeed="35.18" departDelay="0.00" arrival="152.70" arrivalLane="e0_1" arrivalPos="4800.00" arrivalSpeed="34.53" duration="141.30" routeLength="4800.10" waitingTime="0.00" waitingCount="0" stopTime="0.00" timeLoss="4.75" rerouteNo="0" devices="tripinfo_CVToC.3 routing_CVToC.3 ssm_CVToC.3 toc_CVToC.3 driverstateCVToC.3" vType="vehLVOS495" speedFactor="0.97" vaporized=""/>
    <tripinfo id="CVToC.4" depart="11.60" departLane="entry_0" departPos="199.90" departSpeed="34.89" departDelay="0.00" arrival="153.30" arrivalLane="e0_0" arrivalPos="4800.00" arrivalSpeed="34.89" duration="141.70" routeLength="4800.10" waitingTime="0.00" waitingCount="0" stopTime="0.00" timeLoss="4.09" rerouteNo="0" devices="tripinfo_CVToC.4 routing_CVToC.4 ssm_CVToC.4 toc_CVToC.4 driverstateCVToC.4" vType="vehLVOS660" speedFactor="0.97" vaporized=""/>
    <tripinfo id="CAVToC.1" depart="14.70" departLane="entry_1" departPos="199.90" departSpeed="36.51" departDelay="0.00" arrival="153.80" arrivalLane="e0_1" arrivalPos="4800.00" arrivalSpeed="35.37" duration="139.10" routeLength="4800.10" waitingTime="0.00" waitingCount="0" stopTime="0.00" timeLoss="16.50" rerouteNo="0" devices="tripinfo_CAVToC.1 routing_CAVToC.1 ssm_CAVToC.1 toc_CAVToC.1 driverstateCAVToC.1" vType="vehLVOS358" speedFactor="1.08" vaporized=""/>
    <tripinfo id="CVToC.5" depart="12.80" departLane="entry_0" departPos="99.57" departSpeed="34.90" departDelay="0.00" arrival="156.50" arrivalLane="e0_1" arrivalPos="4800.00" arrivalSpeed="34.88" duration="143.70" routeLength="4900.43" waitingTime="0.00" waitingCount="0" stopTime="0.00" timeLoss="3.20" rerouteNo="0" devices="tripinfo_CVToC.5 routing_CVToC.5 ssm_CVToC.5 toc_CVToC.5 driverstateCVToC.5" vType="vehLVOS939" speedFactor="0.97" vaporized=""/>
    <tripinfo id="CAVToC.0" depart="11.90" departLane="entry_0" departPos="138.90" departSpeed="35.02" departDelay="0.00" arrival="157.00" arrivalLane="e0_0" arrivalPos="4800.00" arrivalSpeed="35.10" duration="145.10" routeLength="4861.10" waitingTime="0.00" waitingCount="0" stopTime="0.00" timeLoss="6.88" rerouteNo="0" devices="tripinfo_CAVToC.0 routing_CAVToC.0 ssm_CAVToC.0 toc_CAVToC.0 driverstateCAVToC.0" vType="vehLVOS675" speedFactor="0.97" vaporized=""/>
    <tripinfo id="CAVToC.3" depart="15.60" departLane="entry_1" departPos="157.85" departSpeed="34.09" departDelay="0.00" arrival="160.90" arrivalLane="e0_1" arrivalPos="4800.00" arrivalSpeed="34.08" duration="145.30" routeLength="4842.15" waitingTime="0.00" waitingCount="0" stopTime="0.00" timeLoss="3.26" rerouteNo="0" devices="tripinfo_CAVToC.3 routing_CAVToC.3 ssm_CAVToC.3 toc_CAVToC.3 driverstateCAVToC.3" vType="vehLVOS705" speedFactor="0.94" vaporized=""/>
    <tripinfo id="LV.0" depart="16.80" departLane="entry_1" departPos="37.60" departSpeed="43.56" departDelay="0.00" arrival="162.40" arrivalLane="e0_1" arrivalPos="4800.00" arrivalSpeed="35.98" duration="145.60" routeLength="4962.40" waitingTime="0.00" waitingCount="0" stopTime="0.00" timeLoss="31.67" rerouteNo="0" devices="tripinfo_LV.0 routing_LV.0 ssm_LV.0" vType="vehLVOS518" speedFactor="1.21" vaporized=""/>
    <tripinfo id="CAVToC.2" depart="15.00" departLane="entry_0" departPos="86.03" departSpeed="35.69" departDelay="0.00" arrival="162.90" arrivalLane="e0_0" arrivalPos="4800.00" arrivalSpeed="36.94" duration="147.90" routeLength="4913.97" waitingTime="0.00" waitingCount="0" stopTime="0.00" timeLoss="29.62" rerouteNo="0" devices="tripinfo_CAVToC.2 routing_CAVToC.2 ssm_CAVToC.2 toc_CAVToC.2 driverstateCAVToC.2" vType="vehLVOS879" speedFactor="1.15" vaporized=""/>
    <tripinfo id="CAVToC.6" depart="21.70" departLane="entry_1" departPos="50.99" departSpeed="29.85" departDelay="0.00" arrival="167.60" arrivalLane="e0_1" arrivalPos="4800.00" arrivalSpeed="38.97" duration="145.90" routeLength="4949.01" waitingTime="0.00" waitingCount="0" stopTime="0.00" timeLoss="18.94" rerouteNo="0" devices="tripinfo_CAVToC.6 routing_CAVToC.6 ssm_CAVToC.6 toc_CAVToC.6 driverstateCAVToC.6" vType="vehLVOS533" speedFactor="1.08" vaporized=""/>
    <tripinfo id="CAVToC.4" depart="17.20" departLane="entry_0" departPos="94.89" departSpeed="33.23" departDelay="0.00" arrival="169.00" arrivalLane="e0_0" arrivalPos="4800.00" arrivalSpeed="33.19" duration="151.80" routeLength="4905.11" waitingTime="0.00" waitingCount="0" stopTime="0.00" timeLoss="4.14" rerouteNo="0" devices="tripinfo_CAVToC.4 routing_CAVToC.4 ssm_CAVToC.4 toc_CAVToC.4 driverstateCAVToC.4" vType="vehLVOS162" speedFactor="0.92" vaporized=""/>
    <tripinfo id="CVToC.7" depart="24.60" departLane="entry_1" departPos="0.34" departSpeed="32.94" departDelay="0.10" arrival="177.10" arrivalLane="e0_1" arrivalPos="4800.00" arrivalSpeed="41.10" duration="152.50" routeLength="4999.66" waitingTime="0.00" waitingCount="0" stopTime="0.00" timeLoss="30.92" rerouteNo="0" devices="tripinfo_CVToC.7 routing_CVToC.7 ssm_CVToC.7 toc_CVToC.7 driverstateCVToC.7" vType="vehLVOS534" speedFactor="1.14" vaporized=""/>
    <tripinfo id="LV.3" depart="22.60" departLane="entry_1" departPos="20.23" departSpeed="33.01" departDelay="0.00" arrival="184.20" arrivalLane="e0_0" arrivalPos="4800.00" arrivalSpeed="32.98" duration="161.60" routeLength="4979.77" waitingTime="0.00" waitingCount="0" stopTime="0.00" timeLoss="10.64" rerouteNo="0" devices="tripinfo_LV.3 routing_LV.3 ssm_LV.3" vType="vehLVOS870" speedFactor="0.91" vaporized=""/>
    <tripinfo id="CVToC.8" depart="27.70" departLane="entry_1" departPos="21.07" departSpeed="32.17" departDelay="0.00" arrival="184.20" arrivalLane="e0_1" arrivalPos="4800.00" arrivalSpeed="36.86" duration="156.50" routeLength="4978.93" waitingTime="0.00" waitingCount="0" stopTime="0.00" timeLoss="21.59" rerouteNo="0" devices="tripinfo_CVToC.8 routing_CVToC.8 ssm_CVToC.8 toc_CVToC.8 driverstateCVToC.8" vType="vehLVOS255" speedFactor="1.02" vaporized=""/>
    <tripinfo id="CVToC.9" depart="29.40" departLane="entry_1" departPos="0.89" departSpeed="31.83" departDelay="0.00" arrival="191.40" arrivalLane="e0_0" arrivalPos="4800.00" arrivalSpeed="33.84" duration="162.00" routeLength="4999.11" waitingTime="0.00" waitingCount="0" stopTime="0.00" timeLoss="14.28" rerouteNo="0" devices="tripinfo_CVToC.9 routing_CVToC.9 ssm_CVToC.9 toc_CVToC.9 driverstateCVToC.9" vType="vehLVOS158" speedFactor="0.94" vaporized=""/>
    <tripinfo id="LV.2" depart="20.40" departLane="entry_1" departPos="101.54" departSpeed="29.31" departDelay="0.00" arrival="192.80" arrivalLane="e0_0" arrivalPos="4800.00" arrivalSpeed="29.30" duration="172.40" routeLength="4898.46" waitingTime="0.00" waitingCount="0" stopTime="0.00" timeLoss="5.28" rerouteNo="0" devices="tripinfo_LV.2 routing_LV.2 ssm_LV.2" vType="vehLVOS419" speedFactor="0.81" vaporized=""/>
    <tripinfo id="CAVToC.10" depart="32.20" departLane="entry_1" departPos="1.06" departSpeed="31.30" departDelay="2.40" arrival="193.00" arrivalLane="e0_1" arrivalPos="4800.00" arrivalSpeed="36.29" duration="160.80" routeLength="4998.94" waitingTime="0.00" waitingCount="0" stopTime="0.00" timeLoss="32.19" rerouteNo="0" devices="tripinfo_CAVToC.10 routing_CAVToC.10 ssm_CAVToC.10 toc_CAVToC.10 driverstateCAVToC.10" vType="vehLVOS998" speedFactor="1.08" vaporized=""/>
    <tripinfo id="CVToC.11" depart="35.40" departLane="entry_1" departPos="6.72" departSpeed="29.65" departDelay="3.20" arrival="195.80" arrivalLane="e0_1" arrivalPos="4800.00" arrivalSpeed="39.37" duration="160.40" routeLength="4993.28" waitingTime="0.00" waitingCount="0" stopTime="0.00" timeLoss="39.58" rerouteNo="0" devices="tripinfo_CVToC.11 routing_CVToC.11 ssm_CVToC.11 toc_CVToC.11 driverstateCVToC.11" vType="vehLVOS162" speedFactor="1.15" vaporized=""/>
    <tripinfo id="CAVToC.12" depart="35.90" departLane="entry_0" departPos="1.80" departSpeed="26.80" departDelay="3.50" arrival="199.00" arrivalLane="e0_1" arrivalPos="4800.00" arrivalSpeed="39.34" duration="163.10" routeLength="4998.20" waitingTime="0.00" waitingCount="0" stopTime="0.00" timeLoss="36.09" rerouteNo="0" devices="tripinfo_CAVToC.12 routing_CAVToC.12 ssm_CAVToC.12 toc_CAVToC.12 driverstateCAVToC.12" vType="vehLVOS472" speedFactor="1.09" vaporized=""/>
    <tripinfo id="CAVToC.5" depart="20.90" departLane="entry_0" departPos="140.25" departSpeed="29.69" departDelay="0.00" arrival="202.50" arrivalLane="e0_0" arrivalPos="4800.00" arrivalSpeed="32.48" duration="181.60" routeLength="4859.75" waitingTime="0.00" waitingCount="0" stopTime="0.00" timeLoss="32.23" rerouteNo="0" devices="tripinfo_CAVToC.5 routing_CAVToC.5 ssm_CAVToC.5 toc_CAVToC.5 driverstateCAVToC.5" vType="vehLVOS907" speedFactor="0.90" vaporized=""/>
    <tripinfo id="CVToC.10" depart="32.70" departLane="entry_0" departPos="2.56" departSpeed="26.90" departDelay="1.90" arrival="210.70" arrivalLane="e0_1" arrivalPos="4800.00" arrivalSpeed="30.07" duration="178.00" routeLength="4997.44" waitingTime="0.00" waitingCount="0" stopTime="0.00" timeLoss="11.75" rerouteNo="0" devices="tripinfo_CVToC.10 routing_CVToC.10 ssm_CVToC.10 toc_CVToC.10 driverstateCVToC.10" vType="vehLVOS735" speedFactor="0.83" vaporized=""/>
    <tripinfo id="LV.1" depart="18.90" departLane="entry_1" departPos="119.34" departSpeed="25.27" departDelay="0.00" arrival="212.30" arrivalLane="e0_0" arrivalPos="4800.00" arrivalSpeed="25.27" duration="193.40" routeLength="4880.66" waitingTime="0.00" waitingCount="0" stopTime="0.00" timeLoss="0.18" rerouteNo="0" devices="tripinfo_LV.1 routing_LV.1 ssm_LV.1" vType="vehLVOS909" speedFactor="0.70" vaporized=""/>
    <tripinfo id="CAVToC.14" depart="40.90" departLane="entry_1" departPos="16.42" departSpeed="25.62" departDelay="4.40" arrival="213.20" arrivalLane="e0_1" arrivalPos="4800.00" arrivalSpeed="34.80" duration="172.30" routeLength="4983.58" waitingTime="0.00" waitingCount="0" stopTime="0.00" timeLoss="29.64" rerouteNo="0" devices="tripinfo_CAVToC.14 routing_CAVToC.14 ssm_CAVToC.14 toc_CAVToC.14 driverstateCAVToC.14" vType="vehLVOS903" speedFactor="0.97" vaporized=""/>
    <tripinfo id="CAVToC.7" depart="21.90" departLane="entry_0" departPos="73.46" departSpeed="28.88" departDelay="0.00" arrival="213.90" arrivalLane="e0_0" arrivalPos="4800.00" arrivalSpeed="26.73" duration="192.00" routeLength="4926.54" waitingTime="0.00" waitingCount="0" stopTime="0.00" timeLoss="78.58" rerouteNo="0" devices="tripinfo_CAVToC.7 routing_CAVToC.7 ssm_CAVToC.7 toc_CAVToC.7 driverstateCAVToC.7" vType="vehLVOS224" speedFactor="1.20" vaporized=""/>
    <tripinfo id="CVToC.16" depart="44.20" departLane="entry_1" departPos="26.03" departSpeed="26.38" departDelay="3.80" arrival="214.10" arrivalLane="e0_1" arrivalPos="4800.00" arrivalSpeed="33.78" duration="169.90" routeLength="4973.97" waitingTime="0.00" waitingCount="0" stopTime="0.00" timeLoss="22.92" rerouteNo="0" devices="tripinfo_CVToC.16 routing_CVToC.16 ssm_CVToC.16 toc_CVToC.16 driverstateCVToC.16" vType="vehLVOS319" speedFactor="0.94" vaporized=""/>
    <tripinfo id="CVToC.6" depart="23.20" departLane="entry_0" departPos="39.31" departSpeed="28.04" departDelay="0.10" arrival="215.10" arrivalLane="e0_0" arrivalPos="4800.00" arrivalSpeed="28.40" duration="191.90" routeLength="4960.69" waitingTime="0.00" waitingCount="0" stopTime="0.00" timeLoss="38.85" rerouteNo="0" devices="tripinfo_CVToC.6 routing_CVToC.6 ssm_CVToC.6 toc_CVToC.6 driverstateCVToC.6" vType="vehLVOS168" speedFactor="0.90" vaporized=""/>
    <tripinfo id="CVToC.15" depart="46.60" departLane="entry_1" departPos="9.66" departSpeed="27.22" departDelay="7.40" arrival="215.20" arrivalLane="e0_1" arrivalPos="4800.00" arrivalSpeed="35.80" duration="168.60" routeLength="4990.34" waitingTime="0.00" waitingCount="0" stopTime="0.00" timeLoss="29.58" rerouteNo="0" devices="tripinfo_CVToC.15 routing_CVToC.15 ssm_CVToC.15 toc_CVToC.15 driverstateCVToC.15" vType="vehLVOS96" speedFactor="0.99" vaporized=""/>
    <tripinfo id="CAVToC.8" depart="27.20" departLane="entry_0" departPos="71.28" departSpeed="25.98" departDelay="0.00" arrival="217.00" arrivalLane="e0_0" arrivalPos="4800.00" arrivalSpeed="29.76" duration="189.80" routeLength="4928.72" waitingTime="0.00" waitingCount="0" stopTime="0.00" timeLoss="41.08" rerouteNo="0" devices="tripinfo_CAVToC.8 routing_CAVToC.8 ssm_CAVToC.8 toc_CAVToC.8 driverstateCAVToC.8" vType="vehLVOS471" speedFactor="0.92" vaporized=""/>
    <tripinfo id="CAVToC.9" depart="28.90" departLane="entry_0" departPos="33.02" departSpeed="27.04" departDelay="0.00" arrival="218.70" arrivalLane="e0_0" arrivalPos="4800.00" arrivalSpeed="29.24" duration="189.80" routeLength="4966.98" waitingTime="0.00" waitingCount="0" stopTime="0.00" timeLoss="60.76" rerouteNo="0" devices="tripinfo_CAVToC.9 routing_CAVToC.9 ssm_CAVToC.9 toc_CAVToC.9 driverstateCAVToC.9" vType="vehLVOS750" speedFactor="1.07" vaporized=""/>
    <tripinfo id="CVToC.17" depart="49.90" departLane="entry_1" departPos="12.20" departSpeed="27.25" departDelay="8.00" arrival="219.10" arrivalLane="e0_1" arrivalPos="4800.00" arrivalSpeed="38.31" duration="169.20" routeLength="4987.80" waitingTime="0.00" waitingCount="0" stopTime="0.00" timeLoss="39.13" rerouteNo="0" devices="tripinfo_CVToC.17 routing_CVToC.17 ssm_CVToC.17 toc_CVToC.17 driverstateCVToC.17" vType="vehLVOS265" speedFactor="1.06" vaporized=""/>
    <tripinfo id="CAVToC.11" depart="30.80" departLane="entry_0" departPos="19.97" departSpeed="27.00" departDelay="0.20" arrival="220.40" arrivalLane="e0_0" arrivalPos="4800.00" arrivalSpeed="28.60" duration="189.60" routeLength="4980.03" waitingTime="0.00" waitingCount="0" stopTime="0.00" timeLoss="21.35" rerouteNo="0" devices="tripinfo_CAVToC.11 routing_CAVToC.11 ssm_CAVToC.11 toc_CAVToC.11 driverstateCAVToC.11" vType="vehLVOS476" speedFactor="0.82" vaporized=""/>
    <tripinfo id="CVToC.19" depart="52.90" departLane="entry_1" departPos="7.81" departSpeed="27.14" departDelay="6.90" arrival="220.60" arrivalLane="e0_1" arrivalPos="4800.00" arrivalSpeed="36.70" duration="167.70" routeLength="4992.19" waitingTime="0.00" waitingCount="0" stopTime="0.00" timeLoss="31.74" rerouteNo="0" devices="tripinfo_CVToC.19 routing_CVToC.19 ssm_CVToC.19 toc_CVToC.19 driverstateCVToC.19" vType="vehLVOS443" speedFactor="1.02" vaporized=""/>
    <tripinfo id="CVToC.22" depart="58.50" departLane="entry_1" departPos="1.34" departSpeed="30.27" departDelay="6.90" arrival="222.40" arrivalLane="e0_1" arrivalPos="4800.00" arrivalSpeed="38.91" duration="163.90" routeLength="4998.66" waitingTime="0.00" waitingCount="0" stopTime="0.00" timeLoss="44.87" rerouteNo="0" devices="tripinfo_CVToC.22 routing_CVToC.22 ssm_CVToC.22 toc_CVToC.22 driverstateCVToC.22" vType="vehLVOS804" speedFactor="1.16" vaporized=""/>
    <tripinfo id="CVToC.21" depart="55.40" departLane="entry_1" departPos="1.12" departSpeed="27.91" departDelay="6.20" arrival="222.50" arrivalLane="e0_0" arrivalPos="4800.00" arrivalSpeed="34.41" duration="167.10" routeLength="4998.88" waitingTime="0.00" waitingCount="0" stopTime="0.00" timeLoss="22.16" rerouteNo="0" devices="tripinfo_CVToC.21 routing_CVToC.21 ssm_CVToC.21 toc_CVToC.21 driverstateCVToC.21" vType="vehLVOS432" speedFactor="0.96" vaporized=""/>
    <tripinfo id="CAVToC.20" depart="61.80" departLane="entry_1" departPos="9.39" departSpeed="27.32" departDelay="4.10" arrival="224.10" arrivalLane="e0_1" arrivalPos="4800.00" arrivalSpeed="34.31" duration="162.30" routeLength="4990.61" waitingTime="0.00" waitingCount="0" stopTime="0.00" timeLoss="17.03" rerouteNo="0" devices="tripinfo_CAVToC.20 routing_CAVToC.20 ssm_CAVToC.20 toc_CAVToC.20 driverstateCAVToC.20" vType="vehLVOS581" speedFactor="0.95" vaporized=""/>
    <tripinfo id="CVToC.14" depart="45.90" departLane="entry_0" departPos="22.57" departSpeed="25.62" departDelay="7.00" arrival="225.50" arrivalLane="e0_1" arrivalPos="4800.00" arrivalSpeed="36.03" duration="179.60" routeLength="4977.43" waitingTime="0.00" waitingCount="0" stopTime="0.00" timeLoss="41.50" rerouteNo="0" devices="tripinfo_CVToC.14 routing_CVToC.14 ssm_CVToC.14 toc_CVToC.14 driverstateCVToC.14" vType="vehLVOS706" speedFactor="1.00" vaporized=""/>
    <tripinfo id="CVToC.18" depart="48.40" departLane="entry_0" departPos="10.48" departSpeed="26.38" departDelay="5.10" arrival="229.30" arrivalLane="e0_0" arrivalPos="4800.00" arrivalSpeed="34.56" duration="180.90" routeLength="4989.52" waitingTime="0.00" waitingCount="0" stopTime="0.00" timeLoss="36.56" rerouteNo="0" devices="tripinfo_CVToC.18 routing_CVToC.18 ssm_CVToC.18 toc_CVToC.18 driverstateCVToC.18" vType="vehLVOS265" speedFactor="0.96" vaporized=""/>
    <tripinfo id="CAVToC.15" depart="41.70" departLane="entry_0" departPos="2.43" departSpeed="22.39" departDelay="3.70" arrival="236.50" arrivalLane="e0_0" arrivalPos="4800.00" arrivalSpeed="29.81" duration="194.80" routeLength="4997.57" waitingTime="0.00" waitingCount="0" stopTime="0.00" timeLoss="27.28" rerouteNo="0" devices="tripinfo_CAVToC.15 routing_CAVToC.15 ssm_CAVToC.15 toc_CAVToC.15 driverstateCAVToC.15" vType="vehLVOS676" speedFactor="0.83" vaporized=""/>
    <tripinfo id="CAVToC.18" depart="62.10" departLane="entry_0" departPos="47.07" departSpeed="24.13" departDelay="5.40" arrival="243.70" arrivalLane="e0_0" arrivalPos="4800.00" arrivalSpeed="28.42" duration="181.60" routeLength="4952.93" waitingTime="0.00" waitingCount="0" stopTime="0.00" timeLoss="8.32" rerouteNo="0" devices="tripinfo_CAVToC.18 routing_CAVToC.18 ssm_CAVToC.18 toc_CAVToC.18 driverstateCAVToC.18" vType="vehLVOS333" speedFactor="0.79" vaporized=""/>
    <tripinfo id="CAVToC.13" depart="37.40" departLane="entry_1" departPos="10.37" departSpeed="24.43" departDelay="1.00" arrival="245.00" arrivalLane="e0_0" arrivalPos="4800.00" arrivalSpeed="24.37" duration="207.60" routeLength="4989.63" waitingTime="0.00" waitingCount="0" stopTime="0.00" timeLoss="3.30" rerouteNo="0" devices="tripinfo_CAVToC.13 routing_CAVToC.13 ssm_CAVToC.13 toc_CAVToC.13 driverstateCAVToC.13" vType="vehLVOS253" speedFactor="0.68" vaporized=""/>
    <tripinfo id="CAVToC.17" depart="64.10" departLane="entry_0" departPos="18.46" departSpeed="25.09" departDelay="10.40" arrival="245.00" arrivalLane="e0_1" arrivalPos="4800.00" arrivalSpeed="34.32" duration="180.90" routeLength="4981.54" waitingTime="0.00" waitingCount="0" stopTime="0.00" timeLoss="35.96" rerouteNo="0" devices="tripinfo_CAVToC.17 routing_CAVToC.17 ssm_CAVToC.17 toc_CAVToC.17 driverstateCAVToC.17" vType="vehLVOS557" speedFactor="0.95" vaporized=""/>
    <tripinfo id="CVToC.12" depart="38.90" departLane="entry_0" departPos="1.63" departSpeed="26.30" departDelay="4.70" arrival="246.10" arrivalLane="e0_0" arrivalPos="4800.00" arrivalSpeed="26.36" duration="207.20" routeLength="4998.37" waitingTime="0.00" waitingCount="0" stopTime="0.00" timeLoss="66.91" rerouteNo="0" devices="tripinfo_CVToC.12 routing_CVToC.12 ssm_CVToC.12 toc_CVToC.12 driverstateCVToC.12" vType="vehLVOS297" speedFactor="0.99" vaporized=""/>
    <tripinfo id="CVToC.13" depart="51.40" departLane="entry_0" departPos="2.05" departSpeed="26.09" departDelay="15.70" arrival="247.30" arrivalLane="e0_0" arrivalPos="4800.00" arrivalSpeed="27.76" duration="195.90" routeLength="4997.95" waitingTime="0.00" waitingCount="0" stopTime="0.00" timeLoss="61.98" rerouteNo="0" devices="tripinfo_CVToC.13 routing_CVToC.13 ssm_CVToC.13 toc_CVToC.13 driverstateCVToC.13" vType="vehLVOS537" speedFactor="1.03" vaporized=""/>
    <tripinfo id="CAVToC.19" depart="65.20" departLane="entry_1" departPos="10.30" departSpeed="28.59" departDelay="8.30" arrival="247.60" arrivalLane="e0_1" arrivalPos="4800.00" arrivalSpeed="34.33" duration="182.40" routeLength="4989.70" waitingTime="0.00" waitingCount="0" stopTime="0.00" timeLoss="58.94" rerouteNo="0" devices="tripinfo_CAVToC.19 routing_CAVToC.19 ssm_CAVToC.19 toc_CAVToC.19 driverstateCAVToC.19" vType="vehLVOS479" speedFactor="1.12" vaporized=""/>
    <tripinfo id="CVToC.23" depart="67.90" departLane="entry_1" departPos="0.18" departSpeed="29.49" departDelay="14.40" arrival="249.40" arrivalLane="e0_1" arrivalPos="4800.00" arrivalSpeed="35.97" duration="181.50" routeLength="4999.82" waitingTime="0.00" waitingCount="0" stopTime="0.00" timeLoss="50.88" rerouteNo="0" devices="tripinfo_CVToC.23 routing_CVToC.23 ssm_CVToC.23 toc_CVToC.23 driverstateCVToC.23" vType="vehLVOS940" speedFactor="1.06" vaporized=""/>
    <tripinfo id="CAVToC.16" depart="54.40" departLane="entry_0" departPos="0.42" departSpeed="25.52" departDelay="5.30" arrival="249.50" arrivalLane="e0_0" arrivalPos="4800.00" arrivalSpeed="28.14" duration="195.10" routeLength="4999.58" waitingTime="0.00" waitingCount="0" stopTime="0.00" timeLoss="49.66" rerouteNo="0" devices="tripinfo_CAVToC.16 routing_CAVToC.16 ssm_CAVToC.16 toc_CAVToC.16 driverstateCAVToC.16" vType="vehLVOS137" speedFactor="0.95" vaporized=""/>
    <tripinfo id="LV.6" depart="73.20" departLane="entry_1" departPos="2.10" departSpeed="41.50" departDelay="17.50" arrival="250.30" arrivalLane="e0_1" arrivalPos="4800.00" arrivalSpeed="36.84" duration="177.10" routeLength="4997.90" waitingTime="0.00" waitingCount="0" stopTime="0.00" timeLoss="56.60" rerouteNo="0" devices="tripinfo_LV.6 routing_LV.6 ssm_LV.6" vType="vehLVOS507" speedFactor="1.15" vaporized=""/>
    <tripinfo id="LV.7" depart="61.80" departLane="entry_1" departPos="84.90" departSpeed="26.42" departDelay="6.00" arrival="251.20" arrivalLane="e0_0" arrivalPos="4800.00" arrivalSpeed="26.36" duration="189.40" routeLength="4915.10" waitingTime="0.00" waitingCount="0" stopTime="0.00" timeLoss="3.32" rerouteNo="0" devices="tripinfo_LV.7 routing_LV.7 ssm_LV.7" vType="vehLVOS24" speedFactor="0.73" vaporized=""/>
    <tripinfo id="LV.5" depart="74.70" departLane="entry_1" departPos="1.42" departSpeed="41.37" departDelay="40.90" arrival="251.40" arrivalLane="e0_1" arrivalPos="4800.00" arrivalSpeed="36.25" duration="176.70" routeLength="4998.58" waitingTime="0.00" waitingCount="0" stopTime="0.00" timeLoss="55.87" rerouteNo="0" devices="tripinfo_LV.5 routing_LV.5 ssm_LV.5" vType="vehLVOS315" speedFactor="1.15" vaporized=""/>
    <tripinfo id="CVToC.20" depart="58.20" departLane="entry_0" departPos="13.64" departSpeed="25.01" departDelay="11.20" arrival="253.20" arrivalLane="e0_0" arrivalPos="4800.00" arrivalSpeed="30.20" duration="195.00" routeLength="4986.36" waitingTime="0.00" waitingCount="0" stopTime="0.00" timeLoss="58.70" rerouteNo="0" devices="tripinfo_CVToC.20 routing_CVToC.20 ssm_CVToC.20 toc_CVToC.20 driverstateCVToC.20" vType="vehLVOS82" speedFactor="1.01" vaporized=""/>
    <tripinfo id="CAVToC.21" depart="77.40" departLane="entry_1" departPos="19.20" departSpeed="36.91" departDelay="7.60" arrival="255.50" arrivalLane="e0_1" arrivalPos="4800.00" arrivalSpeed="36.39" duration="178.10" routeLength="4980.80" waitingTime="0.00" waitingCount="0" stopTime="0.00" timeLoss="60.21" rerouteNo="0" devices="tripinfo_CAVToC.21 routing_CAVToC.21 ssm_CAVToC.21 toc_CAVToC.21 driverstateCAVToC.21" vType="vehLVOS972" speedFactor="1.17" vaporized=""/>
    <tripinfo id="CVToC.24" depart="70.20" departLane="entry_0" departPos="83.23" departSpeed="27.05" departDelay="10.70" arrival="255.80" arrivalLane="e0_0" arrivalPos="4800.00" arrivalSpeed="32.45" duration="185.60" routeLength="4916.77" waitingTime="0.00" waitingCount="0" stopTime="0.00" timeLoss="59.06" rerouteNo="0" devices="tripinfo_CVToC.24 routing_CVToC.24 ssm_CVToC.24 toc_CVToC.24 driverstateCVToC.24" vType="vehLVOS309" speedFactor="1.08" vaporized=""/>
    <tripinfo id="LV.4" depart="77.70" departLane="entry_1" departPos="1.05" departSpeed="36.28" departDelay="47.00" arrival="256.70" arrivalLane="e0_1" arrivalPos="4800.00" arrivalSpeed="36.24" duration="179.00" routeLength="4998.95" waitingTime="0.00" waitingCount="0" stopTime="0.00" timeLoss="41.20" rerouteNo="0" devices="tripinfo_LV.4 routing_LV.4 ssm_LV.4" vType="vehLVOS504" speedFactor="1.00" vaporized=""/>
    <tripinfo id="CVToC.26" depart="73.50" departLane="entry_0" departPos="70.41" departSpeed="28.24" departDelay="6.60" arrival="256.80" arrivalLane="e0_0" arrivalPos="4800.00" arrivalSpeed="32.93" duration="183.30" routeLength="4929.59" waitingTime="0.00" waitingCount="0" stopTime="0.00" timeLoss="75.22" rerouteNo="0" devices="tripinfo_CVToC.26 routing_CVToC.26 ssm_CVToC.26 toc_CVToC.26 driverstateCVToC.26" vType="vehLVOS525" speedFactor="1.26" vaporized=""/>
    <tripinfo id="CAVToC.25" depart="79.90" departLane="entry_1" departPos="6.87" departSpeed="35.31" departDelay="4.80" arrival="258.00" arrivalLane="e0_1" arrivalPos="4800.00" arrivalSpeed="35.16" duration="178.10" routeLength="4993.13" waitingTime="0.00" waitingCount="0" stopTime="0.00" timeLoss="36.66" rerouteNo="0" devices="tripinfo_CAVToC.25 routing_CAVToC.25 ssm_CAVToC.25 toc_CAVToC.25 driverstateCAVToC.25" vType="vehLVOS609" speedFactor="0.98" vaporized=""/>
    <tripinfo id="CAVToC.23" depart="74.40" departLane="entry_0" departPos="23.07" departSpeed="28.56" departDelay="2.90" arrival="260.20" arrivalLane="e0_0" arrivalPos="4800.00" arrivalSpeed="32.19" duration="185.80" routeLength="4976.93" waitingTime="0.00" waitingCount="0" stopTime="0.00" timeLoss="31.15" rerouteNo="0" devices="tripinfo_CAVToC.23 routing_CAVToC.23 ssm_CAVToC.23 toc_CAVToC.23 driverstateCAVToC.23" vType="vehLVOS570" speedFactor="0.89" vaporized=""/>
    <tripinfo id="CAVToC.26" depart="83.00" departLane="entry_1" departPos="38.04" departSpeed="32.14" departDelay="6.90" arrival="261.00" arrivalLane="e0_1" arrivalPos="4800.00" arrivalSpeed="33.29" duration="178.00" routeLength="4961.96" waitingTime="0.00" waitingCount="0" stopTime="0.00" timeLoss="28.88" rerouteNo="0" devices="tripinfo_CAVToC.26 routing_CAVToC.26 ssm_CAVToC.26 toc_CAVToC.26 driverstateCAVToC.26" vType="vehLVOS636" speedFactor="0.92" vaporized=""/>
    <tripinfo id="CVToC.25" depart="77.20" departLane="entry_0" departPos="21.97" departSpeed="28.32" departDelay="11.40" arrival="261.40" arrivalLane="e0_0" arrivalPos="4800.00" arrivalSpeed="31.27" duration="184.20" routeLength="4978.03" waitingTime="0.00" waitingCount="0" stopTime="0.00" timeLoss="46.88" rerouteNo="0" devices="tripinfo_CVToC.25 routing_CVToC.25 ssm_CVToC.25 toc_CVToC.25 driverstateCVToC.25" vType="vehLVOS494" speedFactor="1.00" vaporized=""/>
    <tripinfo id="CAVToC.28" depart="84.70" departLane="entry_1" departPos="20.28" departSpeed="32.01" departDelay="7.80" arrival="262.30" arrivalLane="e0_1" arrivalPos="4800.00" arrivalSpeed="34.98" duration="177.60" routeLength="4979.72" waitingTime="0.00" waitingCount="0" stopTime="0.00" timeLoss="35.21" rerouteNo="0" devices="tripinfo_CAVToC.28 routing_CAVToC.28 ssm_CAVToC.28 toc_CAVToC.28 driverstateCAVToC.28" vType="vehLVOS72" speedFactor="0.97" vaporized=""/>