<?xml version="1.0" encoding="UTF-8"?>

<!-- generated on Thu Aug 27 10:41:49 2020 by Eclipse SUMO sumo Version v1_6_0+1341-81c8bfe906
<configuration xmlns:xsi="http://www.w3.org/2001/XMLSchema-instance" xsi:noNamespaceSchemaLocation="http://sumo.dlr.de/xsd/sumoConfiguration.xsd">

    <input>
        <net-file value="scenario/UC5_1.net.xml"/>
        <route-files value="scenario/routes_trafficMix_0_trafficDemand_1_driverBehaviour_OS_seed_0.xml"/>
        <additional-files value="scenario/additionalsOutput_trafficMix_0_trafficDemand_1_driverBehaviour_OS_seed_0.xml,scenario/vTypesCAVToC_OS.add.xml,scenario/vTypesCVToC_OS.add.xml,scenario/vTypesLV_OS.add.xml,scenario/shapes.add.xml,scenario/view.add.xml"/>
    </input>

    <output>
        <tripinfo-output value="/home/anoulis/workspace/tor-distribution/outputs/simulations/DQN__2020-08-26_22-11-43__20200827-094847/tripinfo_8.xml"/>
    </output>

    <time>
        <step-length value="0.1"/>
    </time>

    <processing>
        <step-method.ballistic value="true"/>
        <ignore-route-errors value="true"/>
        <lanechange.duration value="2.5"/>
    </processing>

    <report>
        <no-step-log value="true"/>
    </report>

    <toc_device>
        <device.toc.ogNewTimeHeadway value="100"/>
        <device.toc.ogNewSpaceHeadway value="5"/>
        <device.toc.ogMaxDecel value="1"/>
        <device.toc.ogChangeRate value="1"/>
    </toc_device>

    <traci_server>
        <remote-port value="51255"/>
    </traci_server>

    <random_number>
        <seed value="1032"/>
    </random_number>

    <gui_only>
        <tracker-interval value="0.1"/>
    </gui_only>

</configuration>
-->

<tripinfos xmlns:xsi="http://www.w3.org/2001/XMLSchema-instance" xsi:noNamespaceSchemaLocation="http://sumo.dlr.de/xsd/tripinfo_file.xsd">
    <tripinfo id="LV.0" depart="2.40" departLane="entry_1" departPos="126.61" departSpeed="41.64" departDelay="0.00" arrival="120.80" arrivalLane="e0_0" arrivalPos="4800.00" arrivalSpeed="41.63" duration="118.40" routeLength="4873.39" waitingTime="0.00" waitingCount="0" stopTime="0.00" timeLoss="1.36" rerouteNo="0" devices="tripinfo_LV.0 routing_LV.0 ssm_LV.0" vType="vehLVOS594" speedFactor="1.15" vaporized=""/>
    <tripinfo id="CAVToC.1" depart="1.90" departLane="entry_1" departPos="199.90" departSpeed="39.24" departDelay="0.00" arrival="124.50" arrivalLane="e0_1" arrivalPos="4800.00" arrivalSpeed="39.22" duration="122.60" routeLength="4800.10" waitingTime="0.00" waitingCount="0" stopTime="0.00" timeLoss="0.21" rerouteNo="0" devices="tripinfo_CAVToC.1 routing_CAVToC.1 ssm_CAVToC.1 toc_CAVToC.1 driverstateCAVToC.1" vType="vehLVOS570" speedFactor="1.09" vaporized=""/>
    <tripinfo id="CVToC.1" depart="4.00" departLane="entry_1" departPos="111.63" departSpeed="36.44" departDelay="0.00" arrival="131.00" arrivalLane="e0_1" arrivalPos="4800.00" arrivalSpeed="38.67" duration="127.00" routeLength="4888.37" waitingTime="0.00" waitingCount="0" stopTime="0.00" timeLoss="0.54" rerouteNo="0" devices="tripinfo_CVToC.1 routing_CVToC.1 ssm_CVToC.1 toc_CVToC.1 driverstateCVToC.1" vType="vehLVOS974" speedFactor="1.07" vaporized=""/>
    <tripinfo id="CAVToC.0" depart="0.10" departLane="entry_0" departPos="199.90" departSpeed="36.04" departDelay="0.00" arrival="133.40" arrivalLane="e0_0" arrivalPos="4800.00" arrivalSpeed="36.04" duration="133.30" routeLength="4800.10" waitingTime="0.00" waitingCount="0" stopTime="0.00" timeLoss="0.02" rerouteNo="0" devices="tripinfo_CAVToC.0 routing_CAVToC.0 ssm_CAVToC.0 toc_CAVToC.0 driverstateCAVToC.0" vType="vehLVOS610" speedFactor="1.00" vaporized=""/>
    <tripinfo id="CVToC.0" depart="1.80" departLane="entry_0" departPos="182.87" departSpeed="36.26" departDelay="0.00" arrival="134.50" arrivalLane="e0_1" arrivalPos="4800.00" arrivalSpeed="37.21" duration="132.70" routeLength="4817.13" waitingTime="0.00" waitingCount="0" stopTime="0.00" timeLoss="3.19" rerouteNo="0" devices="tripinfo_CVToC.0 routing_CVToC.0 ssm_CVToC.0 toc_CVToC.0 driverstateCVToC.0" vType="vehLVOS323" speedFactor="1.03" vaporized=""/>
    <tripinfo id="LV.1" depart="2.90" departLane="entry_0" departPos="197.62" departSpeed="35.57" departDelay="0.00" arrival="138.10" arrivalLane="e0_0" arrivalPos="4800.00" arrivalSpeed="35.56" duration="135.20" routeLength="4802.38" waitingTime="0.00" waitingCount="0" stopTime="0.00" timeLoss="0.18" rerouteNo="0" devices="tripinfo_LV.1 routing_LV.1 ssm_LV.1" vType="vehLVOS125" speedFactor="0.99" vaporized=""/>
    <tripinfo id="CAVToC.4" depart="6.80" departLane="entry_1" departPos="136.76" departSpeed="37.32" departDelay="0.00" arrival="138.40" arrivalLane="e0_1" arrivalPos="4800.00" arrivalSpeed="37.24" duration="131.60" routeLength="4863.24" waitingTime="0.00" waitingCount="0" stopTime="0.00" timeLoss="1.26" rerouteNo="0" devices="tripinfo_CAVToC.4 routing_CAVToC.4 ssm_CAVToC.4 toc_CAVToC.4 driverstateCAVToC.4" vType="vehLVOS598" speedFactor="1.03" vaporized=""/>
    <tripinfo id="CAVToC.2" depart="3.20" departLane="entry_0" departPos="121.08" departSpeed="36.18" departDelay="0.00" arrival="139.60" arrivalLane="e0_0" arrivalPos="4800.00" arrivalSpeed="35.99" duration="136.40" routeLength="4878.92" waitingTime="0.00" waitingCount="0" stopTime="0.00" timeLoss="19.86" rerouteNo="0" devices="tripinfo_CAVToC.2 routing_CAVToC.2 ssm_CAVToC.2 toc_CAVToC.2 driverstateCAVToC.2" vType="vehLVOS439" speedFactor="1.16" vaporized=""/>
    <tripinfo id="LV.2" depart="8.30" departLane="entry_1" departPos="70.18" departSpeed="39.63" departDelay="0.10" arrival="140.10" arrivalLane="e0_1" arrivalPos="4800.00" arrivalSpeed="39.60" duration="131.80" routeLength="4929.82" waitingTime="0.00" waitingCount="0" stopTime="0.00" timeLoss="7.33" rerouteNo="0" devices="tripinfo_LV.2 routing_LV.2 ssm_LV.2" vType="vehLVOS984" speedFactor="1.10" vaporized=""/>
    <tripinfo id="CVToC.3" depart="10.00" departLane="entry_1" departPos="60.76" departSpeed="35.46" departDelay="0.00" arrival="149.60" arrivalLane="e0_0" arrivalPos="4800.00" arrivalSpeed="35.44" duration="139.60" routeLength="4939.24" waitingTime="0.00" waitingCount="0" stopTime="0.00" timeLoss="0.27" rerouteNo="0" devices="tripinfo_CVToC.3 routing_CVToC.3 ssm_CVToC.3 toc_CVToC.3 driverstateCVToC.3" vType="vehLVOS15" speedFactor="0.98" vaporized=""/>
    <tripinfo id="CVToC.2" depart="7.90" departLane="entry_0" departPos="59.83" departSpeed="32.79" departDelay="0.00" arrival="152.00" arrivalLane="e0_1" arrivalPos="4800.00" arrivalSpeed="36.91" duration="144.10" routeLength="4940.17" waitingTime="0.00" waitingCount="0" stopTime="0.00" timeLoss="10.26" rerouteNo="0" devices="tripinfo_CVToC.2 routing_CVToC.2 ssm_CVToC.2 toc_CVToC.2 driverstateCVToC.2" vType="vehLVOS536" speedFactor="1.02" vaporized=""/>
    <tripinfo id="CAVToC.3" depart="4.20" departLane="entry_0" departPos="85.67" departSpeed="33.73" departDelay="0.00" arrival="153.50" arrivalLane="e0_0" arrivalPos="4800.00" arrivalSpeed="33.66" duration="149.30" routeLength="4914.33" waitingTime="0.00" waitingCount="0" stopTime="0.00" timeLoss="3.59" rerouteNo="0" devices="tripinfo_CAVToC.3 routing_CAVToC.3 ssm_CAVToC.3 toc_CAVToC.3 driverstateCAVToC.3" vType="vehLVOS768" speedFactor="0.93" vaporized=""/>
    <tripinfo id="CAVToC.5" depart="6.90" departLane="entry_0" departPos="107.96" departSpeed="32.20" departDelay="0.00" arrival="160.80" arrivalLane="e0_0" arrivalPos="4800.00" arrivalSpeed="32.16" duration="153.90" routeLength="4892.04" waitingTime="0.00" waitingCount="0" stopTime="0.00" timeLoss="1.93" rerouteNo="0" devices="tripinfo_CAVToC.5 routing_CAVToC.5 ssm_CAVToC.5 toc_CAVToC.5 driverstateCAVToC.5" vType="vehLVOS174" speedFactor="0.89" vaporized=""/>
    <tripinfo id="CAVToC.6" depart="10.30" departLane="entry_1" departPos="1.96" departSpeed="32.13" departDelay="0.10" arrival="167.90" arrivalLane="e0_1" arrivalPos="4800.00" arrivalSpeed="32.07" duration="157.60" routeLength="4998.04" waitingTime="0.00" waitingCount="0" stopTime="0.00" timeLoss="1.96" rerouteNo="0" devices="tripinfo_CAVToC.6 routing_CAVToC.6 ssm_CAVToC.6 toc_CAVToC.6 driverstateCAVToC.6" vType="vehLVOS2" speedFactor="0.89" vaporized=""/>
    <tripinfo id="LV.3" depart="11.10" departLane="entry_0" departPos="14.10" departSpeed="35.84" departDelay="0.70" arrival="170.90" arrivalLane="e0_0" arrivalPos="4800.00" arrivalSpeed="35.79" duration="159.80" routeLength="4985.90" waitingTime="0.00" waitingCount="0" stopTime="0.00" timeLoss="20.69" rerouteNo="0" devices="tripinfo_LV.3 routing_LV.3 ssm_LV.3" vType="vehLVOS369" speedFactor="0.99" vaporized=""/>
    <tripinfo id="CVToC.4" depart="13.20" departLane="entry_1" departPos="11.58" departSpeed="32.87" departDelay="1.30" arrival="171.10" arrivalLane="e0_1" arrivalPos="4800.00" arrivalSpeed="37.25" duration="157.90" routeLength="4988.42" waitingTime="0.00" waitingCount="0" stopTime="0.00" timeLoss="27.84" rerouteNo="0" devices="tripinfo_CVToC.4 routing_CVToC.4 ssm_CVToC.4 toc_CVToC.4 driverstateCVToC.4" vType="vehLVOS690" speedFactor="1.06" vaporized=""/>
    <tripinfo id="CAVToC.7" depart="14.70" departLane="entry_0" departPos="43.38" departSpeed="33.15" departDelay="0.10" arrival="172.00" arrivalLane="e0_1" arrivalPos="4800.00" arrivalSpeed="37.73" duration="157.30" routeLength="4956.62" waitingTime="0.00" waitingCount="0" stopTime="0.00" timeLoss="36.39" rerouteNo="0" devices="tripinfo_CAVToC.7 routing_CAVToC.7 ssm_CAVToC.7 toc_CAVToC.7 driverstateCAVToC.7" vType="vehLVOS851" speedFactor="1.14" vaporized=""/>
    <tripinfo id="CVToC.6" depart="15.50" departLane="entry_1" departPos="25.79" departSpeed="29.55" departDelay="0.20" arrival="184.60" arrivalLane="e0_1" arrivalPos="4800.00" arrivalSpeed="29.52" duration="169.10" routeLength="4974.21" waitingTime="0.00" waitingCount="0" stopTime="0.00" timeLoss="0.68" rerouteNo="0" devices="tripinfo_CVToC.6 routing_CVToC.6 ssm_CVToC.6 toc_CVToC.6 driverstateCVToC.6" vType="vehLVOS198" speedFactor="0.82" vaporized=""/>
    <tripinfo id="CAVToC.9" depart="17.60" departLane="entry_1" departPos="0.27" departSpeed="30.69" departDelay="1.20" arrival="187.10" arrivalLane="e0_1" arrivalPos="4800.00" arrivalSpeed="33.20" duration="169.50" routeLength="4999.73" waitingTime="0.00" waitingCount="0" stopTime="0.00" timeLoss="43.81" rerouteNo="0" devices="tripinfo_CAVToC.9 routing_CAVToC.9 ssm_CAVToC.9 toc_CAVToC.9 driverstateCAVToC.9" vType="vehLVOS668" speedFactor="1.10" vaporized=""/>
    <tripinfo id="CVToC.9" depart="20.40" departLane="entry_1" departPos="3.44" departSpeed="31.33" departDelay="1.70" arrival="188.60" arrivalLane="e0_1" arrivalPos="4800.00" arrivalSpeed="34.75" duration="168.20" routeLength="4996.56" waitingTime="0.00" waitingCount="0" stopTime="0.00" timeLoss="34.54" rerouteNo="0" devices="tripinfo_CVToC.9 routing_CVToC.9 ssm_CVToC.9 toc_CVToC.9 driverstateCVToC.9" vType="vehLVOS642" speedFactor="1.04" vaporized=""/>
    <tripinfo id="CAVToC.8" depart="16.20" departLane="entry_0" departPos="7.27" departSpeed="33.41" departDelay="0.70" arrival="189.00" arrivalLane="e0_0" arrivalPos="4800.00" arrivalSpeed="33.00" duration="172.80" routeLength="4992.73" waitingTime="0.00" waitingCount="0" stopTime="0.00" timeLoss="42.21" rerouteNo="0" devices="tripinfo_CAVToC.8 routing_CAVToC.8 ssm_CAVToC.8 toc_CAVToC.8 driverstateCAVToC.8" vType="vehLVOS757" speedFactor="1.06" vaporized=""/>
    <tripinfo id="CAVToC.10" depart="23.30" departLane="entry_1" departPos="22.37" departSpeed="31.34" departDelay="4.10" arrival="190.30" arrivalLane="e0_1" arrivalPos="4800.00" arrivalSpeed="32.65" duration="167.00" routeLength="4977.63" waitingTime="0.00" waitingCount="0" stopTime="0.00" timeLoss="14.49" rerouteNo="0" devices="tripinfo_CAVToC.10 routing_CAVToC.10 ssm_CAVToC.10 toc_CAVToC.10 driverstateCAVToC.10" vType="vehLVOS546" speedFactor="0.90" vaporized=""/>
    <tripinfo id="CVToC.7" depart="19.10" departLane="entry_0" departPos="4.63" departSpeed="28.15" departDelay="2.50" arrival="192.40" arrivalLane="e0_0" arrivalPos="4800.00" arrivalSpeed="36.09" duration="173.30" routeLength="4995.37" waitingTime="0.00" waitingCount="0" stopTime="0.00" timeLoss="44.96" rerouteNo="0" devices="tripinfo_CVToC.7 routing_CVToC.7 ssm_CVToC.7 toc_CVToC.7 driverstateCVToC.7" vType="vehLVOS83" speedFactor="1.08" vaporized=""/>
    <tripinfo id="CVToC.5" depart="25.60" departLane="entry_1" departPos="2.09" departSpeed="32.28" departDelay="11.00" arrival="193.50" arrivalLane="e0_1" arrivalPos="4800.00" arrivalSpeed="39.02" duration="167.90" routeLength="4997.91" waitingTime="0.00" waitingCount="0" stopTime="0.00" timeLoss="49.06" rerouteNo="0" devices="tripinfo_CVToC.5 routing_CVToC.5 ssm_CVToC.5 toc_CVToC.5 driverstateCVToC.5" vType="vehLVOS265" speedFactor="1.17" vaporized=""/>
    <tripinfo id="CVToC.12" depart="22.00" departLane="entry_0" departPos="0.43" departSpeed="29.08" departDelay="1.00" arrival="194.00" arrivalLane="e0_0" arrivalPos="4800.00" arrivalSpeed="37.42" duration="172.00" routeLength="4999.57" waitingTime="0.00" waitingCount="0" stopTime="0.00" timeLoss="39.94" rerouteNo="0" devices="tripinfo_CVToC.12 routing_CVToC.12 ssm_CVToC.12 toc_CVToC.12 driverstateCVToC.12" vType="vehLVOS848" speedFactor="1.05" vaporized=""/>
    <tripinfo id="CVToC.13" depart="27.90" departLane="entry_1" departPos="3.03" departSpeed="31.95" departDelay="4.20" arrival="194.60" arrivalLane="e0_1" arrivalPos="4800.00" arrivalSpeed="33.77" duration="166.70" routeLength="4996.97" waitingTime="0.00" waitingCount="0" stopTime="0.00" timeLoss="18.75" rerouteNo="0" devices="tripinfo_CVToC.13 routing_CVToC.13 ssm_CVToC.13 toc_CVToC.13 driverstateCVToC.13" vType="vehLVOS234" speedFactor="0.94" vaporized=""/>
    <tripinfo id="CVToC.11" depart="24.80" departLane="entry_0" departPos="0.75" departSpeed="29.61" departDelay="3.90" arrival="195.00" arrivalLane="e0_0" arrivalPos="4800.00" arrivalSpeed="34.58" duration="170.20" routeLength="4999.25" waitingTime="0.00" waitingCount="0" stopTime="0.00" timeLoss="31.94" rerouteNo="0" devices="tripinfo_CVToC.11 routing_CVToC.11 ssm_CVToC.11 toc_CVToC.11 driverstateCVToC.11" vType="vehLVOS108" speedFactor="1.00" vaporized=""/>
    <tripinfo id="CAVToC.12" depart="30.40" departLane="entry_1" departPos="18.91" departSpeed="31.24" departDelay="3.90" arrival="196.00" arrivalLane="e0_1" arrivalPos="4800.00" arrivalSpeed="31.21" duration="165.60" routeLength="4981.09" waitingTime="0.00" waitingCount="0" stopTime="0.00" timeLoss="6.13" rerouteNo="0" devices="tripinfo_CAVToC.12 routing_CAVToC.12 ssm_CAVToC.12 toc_CAVToC.12 driverstateCAVToC.12" vType="vehLVOS421" speedFactor="0.87" vaporized=""/>
    <tripinfo id="CVToC.14" depart="27.60" departLane="entry_0" departPos="0.15" departSpeed="30.17" departDelay="2.60" arrival="198.00" arrivalLane="e0_0" arrivalPos="4800.00" arrivalSpeed="34.46" duration="170.40" routeLength="4999.85" waitingTime="0.00" waitingCount="0" stopTime="0.00" timeLoss="40.10" rerouteNo="0" devices="tripinfo_CVToC.14 routing_CVToC.14 ssm_CVToC.14 toc_CVToC.14 driverstateCVToC.14" vType="vehLVOS8" speedFactor="1.06" vaporized=""/>
    <tripinfo id="CVToC.15" depart="32.50" departLane="entry_1" departPos="8.87" departSpeed="31.79" departDelay="6.10" arrival="198.50" arrivalLane="e0_1" arrivalPos="4800.00" arrivalSpeed="34.23" duration="166.00" routeLength="4991.13" waitingTime="0.00" waitingCount="0" stopTime="0.00" timeLoss="27.45" rerouteNo="0" devices="tripinfo_CVToC.15 routing_CVToC.15 ssm_CVToC.15 toc_CVToC.15 driverstateCVToC.15" vType="vehLVOS895" speedFactor="1.00" vaporized=""/>
    <tripinfo id="CVToC.10" depart="33.10" departLane="entry_0" departPos="4.91" departSpeed="30.24" departDelay="13.50" arrival="199.60" arrivalLane="e0_1" arrivalPos="4800.00" arrivalSpeed="35.88" duration="166.50" routeLength="4995.09" waitingTime="0.00" waitingCount="0" stopTime="0.00" timeLoss="40.69" rerouteNo="0" devices="tripinfo_CVToC.10 routing_CVToC.10 ssm_CVToC.10 toc_CVToC.10 driverstateCVToC.10" vType="vehLVOS822" speedFactor="1.10" vaporized=""/>
    <tripinfo id="CAVToC.11" depart="30.50" departLane="entry_0" departPos="18.70" departSpeed="29.75" departDelay="5.10" arrival="201.20" arrivalLane="e0_0" arrivalPos="4800.00" arrivalSpeed="31.68" duration="170.70" routeLength="4981.30" waitingTime="0.00" waitingCount="0" stopTime="0.00" timeLoss="13.42" rerouteNo="0" devices="tripinfo_CAVToC.11 routing_CAVToC.11 ssm_CAVToC.11 toc_CAVToC.11 driverstateCAVToC.11" vType="vehLVOS298" speedFactor="0.88" vaporized=""/>
    <tripinfo id="CAVToC.14" depart="37.40" departLane="entry_1" departPos="7.37" departSpeed="31.00" departDelay="4.20" arrival="201.70" arrivalLane="e0_1" arrivalPos="4800.00" arrivalSpeed="36.76" duration="164.30" routeLength="4992.63" waitingTime="0.00" waitingCount="0" stopTime="0.00" timeLoss="28.54" rerouteNo="0" devices="tripinfo_CAVToC.14 routing_CAVToC.14 ssm_CAVToC.14 toc_CAVToC.14 driverstateCAVToC.14" vType="vehLVOS120" speedFactor="1.02" vaporized=""/>
    <tripinfo id="CAVToC.13" depart="34.50" departLane="entry_1" departPos="1.07" departSpeed="31.27" departDelay="5.30" arrival="202.30" arrivalLane="e0_0" arrivalPos="4800.00" arrivalSpeed="33.35" duration="167.80" routeLength="4998.93" waitingTime="0.00" waitingCount="0" stopTime="0.00" timeLoss="17.98" rerouteNo="0" devices="tripinfo_CAVToC.13 routing_CAVToC.13 ssm_CAVToC.13 toc_CAVToC.13 driverstateCAVToC.13" vType="vehLVOS245" speedFactor="0.92" vaporized=""/>
    <tripinfo id="CVToC.19" depart="40.00" departLane="entry_1" departPos="15.37" departSpeed="30.84" departDelay="4.20" arrival="203.60" arrivalLane="e0_0" arrivalPos="4800.00" arrivalSpeed="34.00" duration="163.60" routeLength="4984.63" waitingTime="0.00" waitingCount="0" stopTime="0.00" timeLoss="17.04" rerouteNo="0" devices="tripinfo_CVToC.19 routing_CVToC.19 ssm_CVToC.19 toc_CVToC.19 driverstateCVToC.19" vType="vehLVOS507" speedFactor="0.94" vaporized=""/>
    <tripinfo id="CAVToC.15" depart="42.10" departLane="entry_1" departPos="1.24" departSpeed="31.37" departDelay="4.30" arrival="203.60" arrivalLane="e0_1" arrivalPos="4800.00" arrivalSpeed="37.88" duration="161.50" routeLength="4998.76" waitingTime="0.00" waitingCount="0" stopTime="0.00" timeLoss="29.83" rerouteNo="0" devices="tripinfo_CAVToC.15 routing_CAVToC.15 ssm_CAVToC.15 toc_CAVToC.15 driverstateCAVToC.15" vType="vehLVOS933" speedFactor="1.05" vaporized=""/>
    <tripinfo id="CVToC.21" depart="44.60" departLane="entry_1" departPos="2.64" departSpeed="31.21" departDelay="5.50" arrival="205.40" arrivalLane="e0_1" arrivalPos="4800.00" arrivalSpeed="35.66" duration="160.80" routeLength="4997.36" waitingTime="0.00" waitingCount="0" stopTime="0.00" timeLoss="20.59" rerouteNo="0" devices="tripinfo_CVToC.21 routing_CVToC.21 ssm_CVToC.21 toc_CVToC.21 driverstateCVToC.21" vType="vehLVOS680" speedFactor="0.99" vaporized=""/>
    <tripinfo id="CVToC.16" depart="47.60" departLane="entry_1" departPos="1.10" departSpeed="31.21" departDelay="19.20" arrival="207.50" arrivalLane="e0_1" arrivalPos="4800.00" arrivalSpeed="38.75" duration="159.90" routeLength="4998.90" waitingTime="0.00" waitingCount="0" stopTime="0.00" timeLoss="39.81" rerouteNo="0" devices="tripinfo_CVToC.16 routing_CVToC.16 ssm_CVToC.16 toc_CVToC.16 driverstateCVToC.16" vType="vehLVOS203" speedFactor="1.15" vaporized=""/>
    <tripinfo id="CVToC.22" depart="50.40" departLane="entry_1" departPos="2.27" departSpeed="31.95" departDelay="8.00" arrival="209.00" arrivalLane="e0_0" arrivalPos="4800.00" arrivalSpeed="39.13" duration="158.60" routeLength="4997.73" waitingTime="0.00" waitingCount="0" stopTime="0.00" timeLoss="30.89" rerouteNo="0" devices="tripinfo_CVToC.22 routing_CVToC.22 ssm_CVToC.22 toc_CVToC.22 driverstateCVToC.22" vType="vehLVOS172" speedFactor="1.08" vaporized=""/>
    <tripinfo id="LV.7" depart="52.60" departLane="entry_1" departPos="12.87" departSpeed="32.28" departDelay="1.60" arrival="211.20" arrivalLane="e0_0" arrivalPos="4800.00" arrivalSpeed="32.21" duration="158.60" routeLength="4987.13" waitingTime="0.00" waitingCount="0" stopTime="0.00" timeLoss="3.99" rerouteNo="0" devices="tripinfo_LV.7 routing_LV.7 ssm_LV.7" vType="vehLVOS782" speedFactor="0.89" vaporized=""/>
    <tripinfo id="CVToC.8" depart="51.00" departLane="entry_0" departPos="0.23" departSpeed="27.17" departDelay="34.00" arrival="212.30" arrivalLane="e0_1" arrivalPos="4800.00" arrivalSpeed="34.54" duration="161.30" routeLength="4999.77" waitingTime="0.00" waitingCount="0" stopTime="0.00" timeLoss="52.08" rerouteNo="0" devices="tripinfo_CVToC.8 routing_CVToC.8 ssm_CVToC.8 toc_CVToC.8 driverstateCVToC.8" vType="vehLVOS15" speedFactor="1.27" vaporized=""/>
    <tripinfo id="CVToC.23" depart="47.30" departLane="entry_0" departPos="2.92" departSpeed="26.69" departDelay="3.10" arrival="214.80" arrivalLane="e0_1" arrivalPos="4800.00" arrivalSpeed="37.09" duration="167.50" routeLength="4997.08" waitingTime="0.00" waitingCount="0" stopTime="0.00" timeLoss="43.51" rerouteNo="0" devices="tripinfo_CVToC.23 routing_CVToC.23 ssm_CVToC.23 toc_CVToC.23 driverstateCVToC.23" vType="vehLVOS975" speedFactor="1.12" vaporized=""/>
    <tripinfo id="CAVToC.16" depart="44.10" departLane="entry_0" departPos="7.03" departSpeed="27.44" departDelay="0.40" arrival="216.10" arrivalLane="e0_1" arrivalPos="4800.00" arrivalSpeed="33.23" duration="172.00" routeLength="4992.97" waitingTime="0.00" waitingCount="0" stopTime="0.00" timeLoss="21.89" rerouteNo="0" devices="tripinfo_CAVToC.16 routing_CAVToC.16 ssm_CAVToC.16 toc_CAVToC.16 driverstateCAVToC.16" vType="vehLVOS684" speedFactor="0.92" vaporized=""/>
    <tripinfo id="LV.4" depart="33.60" departLane="entry_0" departPos="10.05" departSpeed="28.22" departDelay="5.20" arrival="217.00" arrivalLane="e0_0" arrivalPos="4800.00" arrivalSpeed="28.19" duration="183.40" routeLength="4989.95" waitingTime="0.00" waitingCount="0" stopTime="0.00" timeLoss="6.49" rerouteNo="0" devices="tripinfo_LV.4 routing_LV.4 ssm_LV.4" vType="vehLVOS592" speedFactor="0.78" vaporized=""/>
    <tripinfo id="CVToC.18" depart="36.60" departLane="entry_0" departPos="15.68" departSpeed="28.73" departDelay="2.80" arrival="217.90" arrivalLane="e0_0" arrivalPos="4800.00" arrivalSpeed="29.67" duration="181.30" routeLength="4984.32" waitingTime="0.00" waitingCount="0" stopTime="0.00" timeLoss="47.06" rerouteNo="0" devices="tripinfo_CVToC.18 routing_CVToC.18 ssm_CVToC.18 toc_CVToC.18 driverstateCVToC.18" vType="vehLVOS391" speedFactor="1.03" vaporized=""/>
    <tripinfo id="CVToC.20" depart="41.40" departLane="entry_0" departPos="4.53" departSpeed="28.77" departDelay="3.80" arrival="218.80" arrivalLane="e0_1" arrivalPos="4800.00" arrivalSpeed="35.73" duration="177.40" routeLength="4995.47" waitingTime="0.00" waitingCount="0" stopTime="0.00" timeLoss="38.01" rerouteNo="0" devices="tripinfo_CVToC.20 routing_CVToC.20 ssm_CVToC.20 toc_CVToC.20 driverstateCVToC.20" vType="vehLVOS875" speedFactor="0.99" vaporized=""/>
    <tripinfo id="CVToC.17" depart="38.70" departLane="entry_0" departPos="4.38" departSpeed="28.72" departDelay="7.60" arrival="220.20" arrivalLane="e0_0" arrivalPos="4800.00" arrivalSpeed="31.68" duration="181.50" routeLength="4995.62" waitingTime="0.00" waitingCount="0" stopTime="0.00" timeLoss="24.23" rerouteNo="0" devices="tripinfo_CVToC.17 routing_CVToC.17 ssm_CVToC.17 toc_CVToC.17 driverstateCVToC.17" vType="vehLVOS879" speedFactor="0.88" vaporized=""/>
    <tripinfo id="CAVToC.17" depart="54.60" departLane="entry_1" departPos="13.07" departSpeed="28.57" departDelay="3.30" arrival="231.20" arrivalLane="e0_1" arrivalPos="4800.00" arrivalSpeed="28.54" duration="176.60" routeLength="4986.93" waitingTime="0.00" waitingCount="0" stopTime="0.00" timeLoss="2.00" rerouteNo="0" devices="tripinfo_CAVToC.17 routing_CAVToC.17 ssm_CAVToC.17 toc_CAVToC.17 driverstateCAVToC.17" vType="vehLVOS274" speedFactor="0.79" vaporized=""/>
    <tripinfo id="CVToC.24" depart="55.40" departLane="entry_0" departPos="22.37" departSpeed="27.60" departDelay="9.90" arrival="233.30" arrivalLane="e0_0" arrivalPos="4800.00" arrivalSpeed="33.48" duration="177.90" routeLength="4977.63" waitingTime="0.00" waitingCount="0" stopTime="0.00" timeLoss="58.37" rerouteNo="0" devices="tripinfo_CVToC.24 routing_CVToC.24 ssm_CVToC.24 toc_CVToC.24 driverstateCVToC.24" vType="vehLVOS243" speedFactor="1.15" vaporized=""/>
    <tripinfo id="CVToC.25" depart="57.10" departLane="entry_1" departPos="12.95" departSpeed="29.17" departDelay="10.60" arrival="233.60" arrivalLane="e0_1" arrivalPos="4800.00" arrivalSpeed="32.20" duration="176.50" routeLength="4987.05" waitingTime="0.00" waitingCount="0" stopTime="0.00" timeLoss="28.16" rerouteNo="0" devices="tripinfo_CVToC.25 routing_CVToC.25 ssm_CVToC.25 toc_CVToC.25 driverstateCVToC.25" vType="vehLVOS574" speedFactor="0.93" vaporized=""/>
    <tripinfo id="CVToC.27" depart="57.90" departLane="entry_0" departPos="4.00" departSpeed="27.23" departDelay="3.80" arrival="235.50" arrivalLane="e0_0" arrivalPos="4800.00" arrivalSpeed="34.29" duration="177.60" routeLength="4996.00" waitingTime="0.00" waitingCount="0" stopTime="0.00" timeLoss="52.97" rerouteNo="0" devices="tripinfo_CVToC.27 routing_CVToC.27 ssm_CVToC.27 toc_CVToC.27 driverstateCVToC.27" vType="vehLVOS663" speedFactor="1.11" vaporized=""/>
    <tripinfo id="CAVToC.18" depart="60.00" departLane="entry_1" departPos="28.90" departSpeed="29.31" departDelay="3.70" arrival="235.80" arrivalLane="e0_1" arrivalPos="4800.00" arrivalSpeed="30.59" duration="175.80" routeLength="4971.10" waitingTime="0.00" waitingCount="0" stopTime="0.00" timeLoss="13.94" rerouteNo="0" devices="tripinfo_CAVToC.18 routing_CAVToC.18 ssm_CAVToC.18 toc_CAVToC.18 driverstateCAVToC.18" vType="vehLVOS59" speedFactor="0.85" vaporized=""/>
    <tripinfo id="CAVToC.20" depart="63.00" departLane="entry_1" departPos="35.28" departSpeed="29.81" departDelay="6.10" arrival="236.80" arrivalLane="e0_1" arrivalPos="4800.00" arrivalSpeed="33.64" duration="173.80" routeLength="4964.72" waitingTime="0.00" waitingCount="0" stopTime="0.00" timeLoss="36.03" rerouteNo="0" devices="tripinfo_CAVToC.20 routing_CAVToC.20 ssm_CAVToC.20 toc_CAVToC.20 driverstateCAVToC.20" vType="vehLVOS163" speedFactor="1.00" vaporized=""/>
    <tripinfo id="CVToC.26" depart="62.40" departLane="entry_0" departPos="30.37" departSpeed="27.29" departDelay="14.70" arrival="238.80" arrivalLane="e0_0" arrivalPos="4800.00" arrivalSpeed="34.11" duration="176.40" routeLength="4969.63" waitingTime="0.00" waitingCount="0" stopTime="0.00" timeLoss="60.87" rerouteNo="0" devices="tripinfo_CVToC.26 routing_CVToC.26 ssm_CVToC.26 toc_CVToC.26 driverstateCVToC.26" vType="vehLVOS478" speedFactor="1.19" vaporized=""/>
    <tripinfo id="LV.9" depart="70.20" departLane="entry_1" departPos="10.20" departSpeed="38.35" departDelay="12.40" arrival="239.10" arrivalLane="e0_1" arrivalPos="4800.00" arrivalSpeed="34.01" duration="168.90" routeLength="4989.80" waitingTime="0.00" waitingCount="0" stopTime="0.00" timeLoss="38.78" rerouteNo="0" devices="tripinfo_LV.9 routing_LV.9 ssm_LV.9" vType="vehLVOS573" speedFactor="1.06" vaporized=""/>
    <tripinfo id="LV.8" depart="73.00" departLane="entry_1" departPos="9.10" departSpeed="40.22" departDelay="18.90" arrival="240.20" arrivalLane="e0_1" arrivalPos="4800.00" arrivalSpeed="34.36" duration="167.20" routeLength="4990.90" waitingTime="0.00" waitingCount="0" stopTime="0.00" timeLoss="43.11" rerouteNo="0" devices="tripinfo_LV.8 routing_LV.8 ssm_LV.8" vType="vehLVOS981" speedFactor="1.11" vaporized=""/>
    <tripinfo id="LV.11" depart="74.20" departLane="entry_1" departPos="3.95" departSpeed="40.49" departDelay="12.90" arrival="241.00" arrivalLane="e0_0" arrivalPos="4800.00" arrivalSpeed="34.74" duration="166.80" routeLength="4996.05" waitingTime="0.00" waitingCount="0" stopTime="0.00" timeLoss="43.36" rerouteNo="0" devices="tripinfo_LV.11 routing_LV.11 ssm_LV.11" vType="vehLVOS514" speedFactor="1.12" vaporized=""/>
    <tripinfo id="CVToC.28" depart="76.30" departLane="entry_1" departPos="2.58" departSpeed="36.39" departDelay="14.00" arrival="241.80" arrivalLane="e0_1" arrivalPos="4800.00" arrivalSpeed="35.55" duration="165.50" routeLength="4997.42" waitingTime="0.00" waitingCount="0" stopTime="0.00" timeLoss="34.83" rerouteNo="0" devices="tripinfo_CVToC.28 routing_CVToC.28 ssm_CVToC.28 toc_CVToC.28 driverstateCVToC.28" vType="vehLVOS112" speedFactor="1.06" vaporized=""/>
    <tripinfo id="LV.12" depart="79.60" departLane="entry_1" departPos="71.69" departSpeed="36.20" departDelay="15.60" arrival="242.50" arrivalLane="e0_0" arrivalPos="4800.00" arrivalSpeed="35.43" duration="162.90" routeLength="4928.31" waitingTime="0.00" waitingCount="0" stopTime="0.00" timeLoss="26.68" rerouteNo="0" devices="tripinfo_LV.12 routing_LV.12 ssm_LV.12" vType="vehLVOS648" speedFactor="1.00" vaporized=""/>
    <tripinfo id="CAVToC.25" depart="80.20" departLane="entry_1" departPos="24.08" departSpeed="34.09" departDelay="17.20" arrival="243.60" arrivalLane="e0_1" arrivalPos="4800.00" arrivalSpeed="34.07" duration="163.40" routeLength="4975.92" waitingTime="0.00" waitingCount="0" stopTime="0.00" timeLoss="17.34" rerouteNo="0" devices="tripinfo_CAVToC.25 routing_CAVToC.25 ssm_CAVToC.25 toc_CAVToC.25 driverstateCAVToC.25" vType="vehLVOS845" speedFactor="0.94" vaporized=""/>
    <tripinfo id="CAVToC.19" depart="66.60" departLane="entry_0" departPos="42.01" departSpeed="27.27" departDelay="9.90" arrival="246.00" arrivalLane="e0_0" arrivalPos="4800.00" arrivalSpeed="35.44" duration="179.40" routeLength="4957.99" waitingTime="0.00" waitingCount="0" stopTime="0.00" timeLoss="67.00" rerouteNo="0" devices="tripinfo_CAVToC.19 routing_CAVToC.19 ssm_CAVToC.19 toc_CAVToC.19 driverstateCAVToC.19" vType="vehLVOS699" speedFactor="1.22" vaporized=""/>