<?xml version="1.0" encoding="UTF-8"?>

<!-- generated on Thu Aug 27 10:26:42 2020 by Eclipse SUMO sumo Version v1_6_0+1341-81c8bfe906
<configuration xmlns:xsi="http://www.w3.org/2001/XMLSchema-instance" xsi:noNamespaceSchemaLocation="http://sumo.dlr.de/xsd/sumoConfiguration.xsd">

    <input>
        <net-file value="scenario/UC5_1.net.xml"/>
        <route-files value="scenario/routes_trafficMix_0_trafficDemand_1_driverBehaviour_OS_seed_0.xml"/>
        <additional-files value="scenario/additionalsOutput_trafficMix_0_trafficDemand_1_driverBehaviour_OS_seed_0.xml,scenario/vTypesCAVToC_OS.add.xml,scenario/vTypesCVToC_OS.add.xml,scenario/vTypesLV_OS.add.xml,scenario/shapes.add.xml,scenario/view.add.xml"/>
    </input>

    <output>
        <tripinfo-output value="/home/anoulis/workspace/tor-distribution/outputs/simulations/DQN__2020-08-26_22-11-43__20200827-094847/tripinfo_6.xml"/>
    </output>

    <time>
        <step-length value="0.1"/>
    </time>

    <processing>
        <step-method.ballistic value="true"/>
        <ignore-route-errors value="true"/>
        <lanechange.duration value="2.5"/>
    </processing>

    <report>
        <no-step-log value="true"/>
    </report>

    <toc_device>
        <device.toc.ogNewTimeHeadway value="100"/>
        <device.toc.ogNewSpaceHeadway value="5"/>
        <device.toc.ogMaxDecel value="1"/>
        <device.toc.ogChangeRate value="1"/>
    </toc_device>

    <traci_server>
        <remote-port value="54625"/>
    </traci_server>

    <random_number>
        <seed value="1030"/>
    </random_number>

    <gui_only>
        <tracker-interval value="0.1"/>
    </gui_only>

</configuration>
-->

<tripinfos xmlns:xsi="http://www.w3.org/2001/XMLSchema-instance" xsi:noNamespaceSchemaLocation="http://sumo.dlr.de/xsd/tripinfo_file.xsd">
    <tripinfo id="CAVToC.1" depart="3.30" departLane="entry_1" departPos="83.45" departSpeed="36.49" departDelay="0.00" arrival="131.60" arrivalLane="e0_1" arrivalPos="4800.00" arrivalSpeed="39.00" duration="128.30" routeLength="4916.55" waitingTime="0.00" waitingCount="0" stopTime="0.00" timeLoss="2.25" rerouteNo="0" devices="tripinfo_CAVToC.1 routing_CAVToC.1 ssm_CAVToC.1 toc_CAVToC.1 driverstateCAVToC.1" vType="vehLVOS524" speedFactor="1.08" vaporized=""/>
    <tripinfo id="LV.1" depart="6.70" departLane="entry_1" departPos="134.40" departSpeed="39.39" departDelay="0.00" arrival="133.50" arrivalLane="e0_0" arrivalPos="4800.00" arrivalSpeed="39.36" duration="126.80" routeLength="4865.60" waitingTime="0.00" waitingCount="0" stopTime="0.00" timeLoss="3.22" rerouteNo="0" devices="tripinfo_LV.1 routing_LV.1 ssm_LV.1" vType="vehLVOS289" speedFactor="1.09" vaporized=""/>
    <tripinfo id="CAVToC.2" depart="6.70" departLane="entry_1" departPos="42.54" departSpeed="37.15" departDelay="0.00" arrival="134.90" arrivalLane="e0_1" arrivalPos="4800.00" arrivalSpeed="44.09" duration="128.20" routeLength="4957.46" waitingTime="0.00" waitingCount="0" stopTime="0.00" timeLoss="15.82" rerouteNo="0" devices="tripinfo_CAVToC.2 routing_CAVToC.2 ssm_CAVToC.2 toc_CAVToC.2 driverstateCAVToC.2" vType="vehLVOS54" speedFactor="1.22" vaporized=""/>
    <tripinfo id="LV.0" depart="2.10" departLane="entry_1" departPos="125.88" departSpeed="36.69" departDelay="0.00" arrival="135.40" arrivalLane="e0_0" arrivalPos="4800.00" arrivalSpeed="36.69" duration="133.30" routeLength="4874.12" waitingTime="0.00" waitingCount="0" stopTime="0.00" timeLoss="0.38" rerouteNo="0" devices="tripinfo_LV.0 routing_LV.0 ssm_LV.0" vType="vehLVOS158" speedFactor="1.02" vaporized=""/>
    <tripinfo id="CVToC.1" depart="10.00" departLane="entry_1" departPos="2.87" departSpeed="36.49" departDelay="0.00" arrival="141.70" arrivalLane="e0_1" arrivalPos="4800.00" arrivalSpeed="39.02" duration="131.70" routeLength="4997.13" waitingTime="0.00" waitingCount="0" stopTime="0.00" timeLoss="3.56" rerouteNo="0" devices="tripinfo_CVToC.1 routing_CVToC.1 ssm_CVToC.1 toc_CVToC.1 driverstateCVToC.1" vType="vehLVOS216" speedFactor="1.08" vaporized=""/>
    <tripinfo id="CAVToC.3" depart="6.90" departLane="entry_0" departPos="199.90" departSpeed="42.68" departDelay="0.00" arrival="143.30" arrivalLane="e0_1" arrivalPos="4800.00" arrivalSpeed="42.12" duration="136.40" routeLength="4800.10" waitingTime="0.00" waitingCount="0" stopTime="0.00" timeLoss="23.84" rerouteNo="0" devices="tripinfo_CAVToC.3 routing_CAVToC.3 ssm_CAVToC.3 toc_CAVToC.3 driverstateCAVToC.3" vType="vehLVOS235" speedFactor="1.18" vaporized=""/>
    <tripinfo id="CVToC.0" depart="8.60" departLane="entry_1" departPos="34.16" departSpeed="36.34" departDelay="0.00" arrival="143.80" arrivalLane="e0_0" arrivalPos="4800.00" arrivalSpeed="37.05" duration="135.20" routeLength="4965.84" waitingTime="0.00" waitingCount="0" stopTime="0.00" timeLoss="1.49" rerouteNo="0" devices="tripinfo_CVToC.0 routing_CVToC.0 ssm_CVToC.0 toc_CVToC.0 driverstateCVToC.0" vType="vehLVOS918" speedFactor="1.03" vaporized=""/>
    <tripinfo id="CAVToC.5" depart="14.40" departLane="entry_1" departPos="1.18" departSpeed="34.40" departDelay="0.00" arrival="151.40" arrivalLane="e0_0" arrivalPos="4800.00" arrivalSpeed="37.36" duration="137.00" routeLength="4998.82" waitingTime="0.00" waitingCount="0" stopTime="0.00" timeLoss="3.20" rerouteNo="0" devices="tripinfo_CAVToC.5 routing_CAVToC.5 ssm_CAVToC.5 toc_CAVToC.5 driverstateCAVToC.5" vType="vehLVOS71" speedFactor="1.03" vaporized=""/>
    <tripinfo id="CVToC.5" depart="19.50" departLane="entry_0" departPos="2.64" departSpeed="29.30" departDelay="0.00" arrival="152.70" arrivalLane="e0_1" arrivalPos="4800.00" arrivalSpeed="38.18" duration="133.20" routeLength="4997.36" waitingTime="0.00" waitingCount="0" stopTime="0.00" timeLoss="2.36" rerouteNo="0" devices="tripinfo_CVToC.5 routing_CVToC.5 ssm_CVToC.5 toc_CVToC.5 driverstateCVToC.5" vType="vehLVOS515" speedFactor="1.06" vaporized=""/>
    <tripinfo id="CAVToC.0" depart="0.50" departLane="entry_1" departPos="199.90" departSpeed="30.92" departDelay="0.00" arrival="156.10" arrivalLane="e0_0" arrivalPos="4800.00" arrivalSpeed="30.82" duration="155.60" routeLength="4800.10" waitingTime="0.00" waitingCount="0" stopTime="0.00" timeLoss="0.33" rerouteNo="0" devices="tripinfo_CAVToC.0 routing_CAVToC.0 ssm_CAVToC.0 toc_CAVToC.0 driverstateCAVToC.0" vType="vehLVOS616" speedFactor="0.86" vaporized=""/>
    <tripinfo id="CAVToC.4" depart="7.40" departLane="entry_0" departPos="142.65" departSpeed="36.84" departDelay="0.00" arrival="156.90" arrivalLane="e0_0" arrivalPos="4800.00" arrivalSpeed="32.74" duration="149.50" routeLength="4857.35" waitingTime="0.00" waitingCount="0" stopTime="0.00" timeLoss="17.63" rerouteNo="0" devices="tripinfo_CAVToC.4 routing_CAVToC.4 ssm_CAVToC.4 toc_CAVToC.4 driverstateCAVToC.4" vType="vehLVOS268" speedFactor="1.02" vaporized=""/>
    <tripinfo id="CVToC.3" depart="12.20" departLane="entry_1" departPos="8.52" departSpeed="33.94" departDelay="0.00" arrival="159.30" arrivalLane="e0_0" arrivalPos="4800.00" arrivalSpeed="33.94" duration="147.10" routeLength="4991.48" waitingTime="0.00" waitingCount="0" stopTime="0.00" timeLoss="0.03" rerouteNo="0" devices="tripinfo_CVToC.3 routing_CVToC.3 ssm_CVToC.3 toc_CVToC.3 driverstateCVToC.3" vType="vehLVOS578" speedFactor="0.94" vaporized=""/>
    <tripinfo id="CAVToC.6" depart="16.00" departLane="entry_0" departPos="133.08" departSpeed="27.32" departDelay="0.10" arrival="160.90" arrivalLane="e0_1" arrivalPos="4800.00" arrivalSpeed="37.94" duration="144.90" routeLength="4866.92" waitingTime="0.00" waitingCount="0" stopTime="0.00" timeLoss="16.63" rerouteNo="0" devices="tripinfo_CAVToC.6 routing_CAVToC.6 ssm_CAVToC.6 toc_CAVToC.6 driverstateCAVToC.6" vType="vehLVOS222" speedFactor="1.05" vaporized=""/>
    <tripinfo id="CAVToC.9" depart="26.70" departLane="entry_1" departPos="63.01" departSpeed="34.09" departDelay="0.10" arrival="162.50" arrivalLane="e0_1" arrivalPos="4800.00" arrivalSpeed="38.43" duration="135.80" routeLength="4936.99" waitingTime="0.00" waitingCount="0" stopTime="0.00" timeLoss="7.33" rerouteNo="0" devices="tripinfo_CAVToC.9 routing_CAVToC.9 ssm_CAVToC.9 toc_CAVToC.9 driverstateCAVToC.9" vType="vehLVOS606" speedFactor="1.06" vaporized=""/>
    <tripinfo id="CVToC.7" depart="24.30" departLane="entry_1" departPos="70.80" departSpeed="31.94" departDelay="0.00" arrival="166.70" arrivalLane="e0_0" arrivalPos="4800.00" arrivalSpeed="34.69" duration="142.40" routeLength="4929.20" waitingTime="0.00" waitingCount="0" stopTime="0.00" timeLoss="0.60" rerouteNo="0" devices="tripinfo_CVToC.7 routing_CVToC.7 ssm_CVToC.7 toc_CVToC.7 driverstateCVToC.7" vType="vehLVOS545" speedFactor="0.96" vaporized=""/>
    <tripinfo id="CAVToC.10" depart="33.10" departLane="entry_1" departPos="130.63" departSpeed="34.54" departDelay="0.00" arrival="168.90" arrivalLane="e0_1" arrivalPos="4800.00" arrivalSpeed="37.05" duration="135.80" routeLength="4869.37" waitingTime="0.00" waitingCount="0" stopTime="0.00" timeLoss="4.84" rerouteNo="0" devices="tripinfo_CAVToC.10 routing_CAVToC.10 ssm_CAVToC.10 toc_CAVToC.10 driverstateCAVToC.10" vType="vehLVOS284" speedFactor="1.03" vaporized=""/>
    <tripinfo id="CVToC.8" depart="28.70" departLane="entry_1" departPos="53.93" departSpeed="35.02" departDelay="0.30" arrival="170.50" arrivalLane="e0_0" arrivalPos="4800.00" arrivalSpeed="35.60" duration="141.80" routeLength="4946.07" waitingTime="0.00" waitingCount="0" stopTime="0.00" timeLoss="2.96" rerouteNo="0" devices="tripinfo_CVToC.8 routing_CVToC.8 ssm_CVToC.8 toc_CVToC.8 driverstateCVToC.8" vType="vehLVOS345" speedFactor="0.99" vaporized=""/>
    <tripinfo id="LV.3" depart="31.80" departLane="entry_0" departPos="7.10" departSpeed="36.81" departDelay="0.00" arrival="171.00" arrivalLane="e0_1" arrivalPos="4800.00" arrivalSpeed="36.75" duration="139.20" routeLength="4992.90" waitingTime="0.00" waitingCount="0" stopTime="0.00" timeLoss="3.50" rerouteNo="0" devices="tripinfo_LV.3 routing_LV.3 ssm_LV.3" vType="vehLVOS542" speedFactor="1.02" vaporized=""/>
    <tripinfo id="LV.2" depart="28.00" departLane="entry_0" departPos="4.04" departSpeed="43.85" departDelay="4.90" arrival="173.60" arrivalLane="e0_1" arrivalPos="4800.00" arrivalSpeed="42.33" duration="145.60" routeLength="4995.96" waitingTime="0.00" waitingCount="0" stopTime="0.00" timeLoss="31.65" rerouteNo="0" devices="tripinfo_LV.2 routing_LV.2 ssm_LV.2" vType="vehLVOS332" speedFactor="1.21" vaporized=""/>
    <tripinfo id="CAVToC.14" depart="38.70" departLane="entry_1" departPos="165.11" departSpeed="33.59" departDelay="0.00" arrival="175.00" arrivalLane="e0_0" arrivalPos="4800.00" arrivalSpeed="36.83" duration="136.30" routeLength="4834.89" waitingTime="0.00" waitingCount="0" stopTime="0.00" timeLoss="5.56" rerouteNo="0" devices="tripinfo_CAVToC.14 routing_CAVToC.14 ssm_CAVToC.14 toc_CAVToC.14 driverstateCAVToC.14" vType="vehLVOS588" speedFactor="1.02" vaporized=""/>
    <tripinfo id="CAVToC.16" depart="41.00" departLane="entry_0" departPos="8.63" departSpeed="33.83" departDelay="0.80" arrival="176.70" arrivalLane="e0_1" arrivalPos="4800.00" arrivalSpeed="38.68" duration="135.70" routeLength="4991.37" waitingTime="0.00" waitingCount="0" stopTime="0.00" timeLoss="6.79" rerouteNo="0" devices="tripinfo_CAVToC.16 routing_CAVToC.16 ssm_CAVToC.16 toc_CAVToC.16 driverstateCAVToC.16" vType="vehLVOS678" speedFactor="1.07" vaporized=""/>
    <tripinfo id="CAVToC.12" depart="37.40" departLane="entry_0" departPos="44.10" departSpeed="33.74" departDelay="0.00" arrival="181.80" arrivalLane="e0_0" arrivalPos="4800.00" arrivalSpeed="37.43" duration="144.40" routeLength="4955.90" waitingTime="0.00" waitingCount="0" stopTime="0.00" timeLoss="12.21" rerouteNo="0" devices="tripinfo_CAVToC.12 routing_CAVToC.12 ssm_CAVToC.12 toc_CAVToC.12 driverstateCAVToC.12" vType="vehLVOS432" speedFactor="1.04" vaporized=""/>
    <tripinfo id="LV.5" depart="46.80" departLane="entry_1" departPos="7.14" departSpeed="41.00" departDelay="2.30" arrival="186.00" arrivalLane="e0_1" arrivalPos="4800.00" arrivalSpeed="40.96" duration="139.20" routeLength="4992.86" waitingTime="0.00" waitingCount="0" stopTime="0.00" timeLoss="17.34" rerouteNo="0" devices="tripinfo_LV.5 routing_LV.5 ssm_LV.5" vType="vehLVOS601" speedFactor="1.14" vaporized=""/>
    <tripinfo id="CAVToC.18" depart="43.40" departLane="entry_1" departPos="6.39" departSpeed="31.69" departDelay="1.40" arrival="187.20" arrivalLane="e0_0" arrivalPos="4800.00" arrivalSpeed="37.99" duration="143.80" routeLength="4993.61" waitingTime="0.00" waitingCount="0" stopTime="0.00" timeLoss="12.34" rerouteNo="0" devices="tripinfo_CAVToC.18 routing_CAVToC.18 ssm_CAVToC.18 toc_CAVToC.18 driverstateCAVToC.18" vType="vehLVOS375" speedFactor="1.05" vaporized=""/>
    <tripinfo id="CVToC.9" depart="29.70" departLane="entry_0" departPos="3.63" departSpeed="34.92" departDelay="0.00" arrival="195.70" arrivalLane="e0_0" arrivalPos="4800.00" arrivalSpeed="34.91" duration="166.00" routeLength="4996.37" waitingTime="0.00" waitingCount="0" stopTime="0.00" timeLoss="22.87" rerouteNo="0" devices="tripinfo_CVToC.9 routing_CVToC.9 ssm_CVToC.9 toc_CVToC.9 driverstateCVToC.9" vType="vehLVOS18" speedFactor="0.97" vaporized=""/>
    <tripinfo id="CAVToC.11" depart="36.60" departLane="entry_0" departPos="98.93" departSpeed="33.35" departDelay="0.00" arrival="204.00" arrivalLane="e0_0" arrivalPos="4800.00" arrivalSpeed="34.31" duration="167.40" routeLength="4901.07" waitingTime="0.00" waitingCount="0" stopTime="0.00" timeLoss="25.44" rerouteNo="0" devices="tripinfo_CAVToC.11 routing_CAVToC.11 ssm_CAVToC.11 toc_CAVToC.11 driverstateCAVToC.11" vType="vehLVOS980" speedFactor="0.96" vaporized=""/>
    <tripinfo id="CVToC.2" depart="11.30" departLane="entry_0" departPos="199.90" departSpeed="23.98" departDelay="0.00" arrival="211.70" arrivalLane="e0_0" arrivalPos="4800.00" arrivalSpeed="23.94" duration="200.40" routeLength="4800.10" waitingTime="0.00" waitingCount="0" stopTime="0.00" timeLoss="0.22" rerouteNo="0" devices="tripinfo_CVToC.2 routing_CVToC.2 ssm_CVToC.2 toc_CVToC.2 driverstateCVToC.2" vType="vehLVOS596" speedFactor="0.66" vaporized=""/>
    <tripinfo id="CVToC.4" depart="15.30" departLane="entry_0" departPos="199.90" departSpeed="26.06" departDelay="0.20" arrival="213.20" arrivalLane="e0_0" arrivalPos="4800.00" arrivalSpeed="26.24" duration="197.90" routeLength="4800.10" waitingTime="0.00" waitingCount="0" stopTime="0.00" timeLoss="78.33" rerouteNo="0" devices="tripinfo_CVToC.4 routing_CVToC.4 ssm_CVToC.4 toc_CVToC.4 driverstateCVToC.4" vType="vehLVOS926" speedFactor="1.11" vaporized=""/>
    <tripinfo id="CVToC.10" depart="48.40" departLane="entry_1" departPos="9.05" departSpeed="31.28" departDelay="0.30" arrival="214.80" arrivalLane="e0_1" arrivalPos="4800.00" arrivalSpeed="31.28" duration="166.40" routeLength="4990.95" waitingTime="0.00" waitingCount="0" stopTime="0.00" timeLoss="6.83" rerouteNo="0" devices="tripinfo_CVToC.10 routing_CVToC.10 ssm_CVToC.10 toc_CVToC.10 driverstateCVToC.10" vType="vehLVOS532" speedFactor="0.87" vaporized=""/>
    <tripinfo id="CAVToC.7" depart="16.70" departLane="entry_0" departPos="75.57" departSpeed="28.03" departDelay="0.00" arrival="215.00" arrivalLane="e0_0" arrivalPos="4800.00" arrivalSpeed="28.07" duration="198.30" routeLength="4924.43" waitingTime="0.00" waitingCount="0" stopTime="0.00" timeLoss="52.44" rerouteNo="0" devices="tripinfo_CAVToC.7 routing_CAVToC.7 ssm_CAVToC.7 toc_CAVToC.7 driverstateCAVToC.7" vType="vehLVOS499" speedFactor="0.94" vaporized=""/>
    <tripinfo id="CAVToC.23" depart="51.30" departLane="entry_1" departPos="17.57" departSpeed="31.97" departDelay="2.00" arrival="216.00" arrivalLane="e0_1" arrivalPos="4800.00" arrivalSpeed="34.21" duration="164.70" routeLength="4982.43" waitingTime="0.00" waitingCount="0" stopTime="0.00" timeLoss="29.55" rerouteNo="0" devices="tripinfo_CAVToC.23 routing_CAVToC.23 ssm_CAVToC.23 toc_CAVToC.23 driverstateCAVToC.23" vType="vehLVOS568" speedFactor="1.02" vaporized=""/>
    <tripinfo id="CAVToC.8" depart="17.80" departLane="entry_0" departPos="38.49" departSpeed="28.38" departDelay="0.00" arrival="217.40" arrivalLane="e0_0" arrivalPos="4800.00" arrivalSpeed="30.70" duration="199.60" routeLength="4961.51" waitingTime="0.00" waitingCount="0" stopTime="0.00" timeLoss="42.93" rerouteNo="0" devices="tripinfo_CAVToC.8 routing_CAVToC.8 ssm_CAVToC.8 toc_CAVToC.8 driverstateCAVToC.8" vType="vehLVOS589" speedFactor="0.88" vaporized=""/>
    <tripinfo id="CAVToC.25" depart="53.10" departLane="entry_1" departPos="4.95" departSpeed="31.43" departDelay="1.00" arrival="217.50" arrivalLane="e0_1" arrivalPos="4800.00" arrivalSpeed="31.43" duration="164.40" routeLength="4995.05" waitingTime="0.00" waitingCount="0" stopTime="0.00" timeLoss="5.42" rerouteNo="0" devices="tripinfo_CAVToC.25 routing_CAVToC.25 ssm_CAVToC.25 toc_CAVToC.25 driverstateCAVToC.25" vType="vehLVOS267" speedFactor="0.87" vaporized=""/>
    <tripinfo id="CAVToC.22" depart="56.80" departLane="entry_1" departPos="37.39" departSpeed="30.64" departDelay="7.70" arrival="218.40" arrivalLane="e0_1" arrivalPos="4800.00" arrivalSpeed="33.56" duration="161.60" routeLength="4962.61" waitingTime="0.00" waitingCount="0" stopTime="0.00" timeLoss="29.26" rerouteNo="0" devices="tripinfo_CAVToC.22 routing_CAVToC.22 ssm_CAVToC.22 toc_CAVToC.22 driverstateCAVToC.22" vType="vehLVOS201" speedFactor="1.04" vaporized=""/>
    <tripinfo id="CVToC.6" depart="24.40" departLane="entry_0" departPos="142.77" departSpeed="28.32" departDelay="0.30" arrival="219.00" arrivalLane="e0_0" arrivalPos="4800.00" arrivalSpeed="29.75" duration="194.60" routeLength="4857.23" waitingTime="0.00" waitingCount="0" stopTime="0.00" timeLoss="64.26" rerouteNo="0" devices="tripinfo_CVToC.6 routing_CVToC.6 ssm_CVToC.6 toc_CVToC.6 driverstateCVToC.6" vType="vehLVOS915" speedFactor="1.03" vaporized=""/>
    <tripinfo id="CVToC.11" depart="58.40" departLane="entry_1" departPos="5.89" departSpeed="30.14" departDelay="2.30" arrival="220.70" arrivalLane="e0_1" arrivalPos="4800.00" arrivalSpeed="35.24" duration="162.30" routeLength="4994.11" waitingTime="0.00" waitingCount="0" stopTime="0.00" timeLoss="20.65" rerouteNo="0" devices="tripinfo_CVToC.11 routing_CVToC.11 ssm_CVToC.11 toc_CVToC.11 driverstateCVToC.11" vType="vehLVOS568" speedFactor="0.98" vaporized=""/>
    <tripinfo id="CVToC.16" depart="60.90" departLane="entry_1" departPos="2.79" departSpeed="29.02" departDelay="0.30" arrival="223.80" arrivalLane="e0_1" arrivalPos="4800.00" arrivalSpeed="35.26" duration="162.90" routeLength="4997.21" waitingTime="0.00" waitingCount="0" stopTime="0.00" timeLoss="21.18" rerouteNo="0" devices="tripinfo_CVToC.16 routing_CVToC.16 ssm_CVToC.16 toc_CVToC.16 driverstateCVToC.16" vType="vehLVOS472" speedFactor="0.98" vaporized=""/>
    <tripinfo id="CAVToC.15" depart="40.70" departLane="entry_1" departPos="172.57" departSpeed="27.51" departDelay="1.30" arrival="223.90" arrivalLane="e0_0" arrivalPos="4800.00" arrivalSpeed="27.50" duration="183.20" routeLength="4827.43" waitingTime="0.00" waitingCount="0" stopTime="0.00" timeLoss="7.67" rerouteNo="0" devices="tripinfo_CAVToC.15 routing_CAVToC.15 ssm_CAVToC.15 toc_CAVToC.15 driverstateCAVToC.15" vType="vehLVOS610" speedFactor="0.76" vaporized=""/>
    <tripinfo id="CVToC.14" depart="64.40" departLane="entry_1" departPos="22.35" departSpeed="27.30" departDelay="5.10" arrival="225.90" arrivalLane="e0_1" arrivalPos="4800.00" arrivalSpeed="35.01" duration="161.50" routeLength="4977.65" waitingTime="0.00" waitingCount="0" stopTime="0.00" timeLoss="19.34" rerouteNo="0" devices="tripinfo_CVToC.14 routing_CVToC.14 ssm_CVToC.14 toc_CVToC.14 driverstateCVToC.14" vType="vehLVOS62" speedFactor="0.97" vaporized=""/>
    <tripinfo id="CAVToC.13" depart="38.60" departLane="entry_0" departPos="12.35" departSpeed="33.71" departDelay="0.00" arrival="226.50" arrivalLane="e0_0" arrivalPos="4800.00" arrivalSpeed="29.98" duration="187.90" routeLength="4987.65" waitingTime="0.00" waitingCount="0" stopTime="0.00" timeLoss="42.91" rerouteNo="0" devices="tripinfo_CAVToC.13 routing_CAVToC.13 ssm_CAVToC.13 toc_CAVToC.13 driverstateCAVToC.13" vType="vehLVOS716" speedFactor="0.95" vaporized=""/>
    <tripinfo id="CAVToC.17" depart="44.10" departLane="entry_0" departPos="106.06" departSpeed="27.93" departDelay="3.20" arrival="227.40" arrivalLane="e0_0" arrivalPos="4800.00" arrivalSpeed="32.12" duration="183.30" routeLength="4893.94" waitingTime="0.00" waitingCount="0" stopTime="0.00" timeLoss="53.91" rerouteNo="0" devices="tripinfo_CAVToC.17 routing_CAVToC.17 ssm_CAVToC.17 toc_CAVToC.17 driverstateCAVToC.17" vType="vehLVOS293" speedFactor="1.05" vaporized=""/>
    <tripinfo id="CVToC.17" depart="67.20" departLane="entry_0" departPos="5.93" departSpeed="26.50" departDelay="5.90" arrival="228.00" arrivalLane="e0_1" arrivalPos="4800.00" arrivalSpeed="37.07" duration="160.80" routeLength="4994.07" waitingTime="0.00" waitingCount="0" stopTime="0.00" timeLoss="50.89" rerouteNo="0" devices="tripinfo_CVToC.17 routing_CVToC.17 ssm_CVToC.17 toc_CVToC.17 driverstateCVToC.17" vType="vehLVOS895" speedFactor="1.26" vaporized=""/>
    <tripinfo id="CAVToC.19" depart="44.60" departLane="entry_0" departPos="33.27" departSpeed="28.95" departDelay="0.20" arrival="229.10" arrivalLane="e0_0" arrivalPos="4800.00" arrivalSpeed="32.96" duration="184.50" routeLength="4966.73" waitingTime="0.00" waitingCount="0" stopTime="0.00" timeLoss="56.47" rerouteNo="0" devices="tripinfo_CAVToC.19 routing_CAVToC.19 ssm_CAVToC.19 toc_CAVToC.19 driverstateCAVToC.19" vType="vehLVOS642" speedFactor="1.07" vaporized=""/>
    <tripinfo id="LV.7" depart="73.90" departLane="entry_1" departPos="7.85" departSpeed="41.71" departDelay="19.40" arrival="229.20" arrivalLane="e0_1" arrivalPos="4800.00" arrivalSpeed="37.29" duration="155.30" routeLength="4992.15" waitingTime="0.00" waitingCount="0" stopTime="0.00" timeLoss="35.61" rerouteNo="0" devices="tripinfo_LV.7 routing_LV.7 ssm_LV.7" vType="vehLVOS237" speedFactor="1.16" vaporized=""/>
    <tripinfo id="CAVToC.20" depart="48.30" departLane="entry_0" departPos="59.92" departSpeed="26.57" departDelay="0.10" arrival="230.70" arrivalLane="e0_0" arrivalPos="4800.00" arrivalSpeed="33.84" duration="182.40" routeLength="4940.08" waitingTime="0.00" waitingCount="0" stopTime="0.00" timeLoss="38.12" rerouteNo="0" devices="tripinfo_CAVToC.20 routing_CAVToC.20 ssm_CAVToC.20 toc_CAVToC.20 driverstateCAVToC.20" vType="vehLVOS460" speedFactor="0.95" vaporized=""/>
    <tripinfo id="LV.11" depart="75.90" departLane="entry_1" departPos="13.61" departSpeed="36.80" departDelay="6.50" arrival="231.70" arrivalLane="e0_1" arrivalPos="4800.00" arrivalSpeed="36.73" duration="155.80" routeLength="4986.39" waitingTime="0.00" waitingCount="0" stopTime="0.00" timeLoss="20.20" rerouteNo="0" devices="tripinfo_LV.11 routing_LV.11 ssm_LV.11" vType="vehLVOS321" speedFactor="1.02" vaporized=""/>
    <tripinfo id="CAVToC.21" depart="48.90" departLane="entry_0" departPos="5.37" departSpeed="26.97" departDelay="0.00" arrival="233.10" arrivalLane="e0_0" arrivalPos="4800.00" arrivalSpeed="30.83" duration="184.20" routeLength="4994.63" waitingTime="0.00" waitingCount="0" stopTime="0.00" timeLoss="22.55" rerouteNo="0" devices="tripinfo_CAVToC.21 routing_CAVToC.21 ssm_CAVToC.21 toc_CAVToC.21 driverstateCAVToC.21" vType="vehLVOS150" speedFactor="0.86" vaporized=""/>
    <tripinfo id="LV.12" depart="78.40" departLane="entry_1" departPos="67.25" departSpeed="34.58" departDelay="8.20" arrival="233.30" arrivalLane="e0_1" arrivalPos="4800.00" arrivalSpeed="34.57" duration="154.90" routeLength="4932.75" waitingTime="0.00" waitingCount="0" stopTime="0.00" timeLoss="12.24" rerouteNo="0" devices="tripinfo_LV.12 routing_LV.12 ssm_LV.12" vType="vehLVOS25" speedFactor="0.96" vaporized=""/>
    <tripinfo id="CAVToC.24" depart="51.90" departLane="entry_0" departPos="2.66" departSpeed="26.42" departDelay="0.30" arrival="234.40" arrivalLane="e0_0" arrivalPos="4800.00" arrivalSpeed="31.96" duration="182.50" routeLength="4997.34" waitingTime="0.00" waitingCount="0" stopTime="0.00" timeLoss="41.59" rerouteNo="0" devices="tripinfo_CAVToC.24 routing_CAVToC.24 ssm_CAVToC.24 toc_CAVToC.24 driverstateCAVToC.24" vType="vehLVOS321" speedFactor="0.98" vaporized=""/>
    <tripinfo id="LV.8" depart="55.30" departLane="entry_0" departPos="9.41" departSpeed="30.38" departDelay="0.00" arrival="235.60" arrivalLane="e0_0" arrivalPos="4800.00" arrivalSpeed="30.35" duration="180.30" routeLength="4990.59" waitingTime="0.00" waitingCount="0" stopTime="0.00" timeLoss="15.97" rerouteNo="0" devices="tripinfo_LV.8 routing_LV.8 ssm_LV.8" vType="vehLVOS194" speedFactor="0.84" vaporized=""/>
    <tripinfo id="CAVToC.29" depart="79.10" departLane="entry_1" departPos="15.29" departSpeed="34.62" departDelay="4.50" arrival="235.70" arrivalLane="e0_1" arrivalPos="4800.00" arrivalSpeed="34.77" duration="156.60" routeLength="4984.71" waitingTime="0.00" waitingCount="0" stopTime="0.00" timeLoss="13.17" rerouteNo="0" devices="tripinfo_CAVToC.29 routing_CAVToC.29 ssm_CAVToC.29 toc_CAVToC.29 driverstateCAVToC.29" vType="vehLVOS48" speedFactor="0.96" vaporized=""/>
    <tripinfo id="CAVToC.28" depart="81.60" departLane="entry_1" departPos="14.89" departSpeed="35.01" departDelay="14.10" arrival="237.30" arrivalLane="e0_1" arrivalPos="4800.00" arrivalSpeed="36.53" duration="155.70" routeLength="4985.11" waitingTime="0.00" waitingCount="0" stopTime="0.00" timeLoss="27.52" rerouteNo="0" devices="tripinfo_CAVToC.28 routing_CAVToC.28 ssm_CAVToC.28 toc_CAVToC.28 driverstateCAVToC.28" vType="vehLVOS575" speedFactor="1.08" vaporized=""/>
    <tripinfo id="CVToC.12" depart="58.20" departLane="entry_0" departPos="20.78" departSpeed="28.20" departDelay="1.90" arrival="237.70" arrivalLane="e0_0" arrivalPos="4800.00" arrivalSpeed="32.49" duration="179.50" routeLength="4979.22" waitingTime="0.00" waitingCount="0" stopTime="0.00" timeLoss="35.41" rerouteNo="0" devices="tripinfo_CVToC.12 routing_CVToC.12 ssm_CVToC.12 toc_CVToC.12 driverstateCVToC.12" vType="vehLVOS18" speedFactor="0.96" vaporized=""/>
    <tripinfo id="CVToC.21" depart="83.30" departLane="entry_1" departPos="1.10" departSpeed="34.11" departDelay="7.60" arrival="238.20" arrivalLane="e0_1" arrivalPos="4800.00" arrivalSpeed="34.11" duration="154.90" routeLength="4998.90" waitingTime="0.00" waitingCount="0" stopTime="0.00" timeLoss="8.33" rerouteNo="0" devices="tripinfo_CVToC.21 routing_CVToC.21 ssm_CVToC.21 toc_CVToC.21 driverstateCVToC.21" vType="vehLVOS860" speedFactor="0.94" vaporized=""/>
    <tripinfo id="CVToC.20" depart="81.90" departLane="entry_0" departPos="28.28" departSpeed="23.97" departDelay="9.60" arrival="239.70" arrivalLane="e0_1" arrivalPos="4800.00" arrivalSpeed="36.03" duration="157.80" routeLength="4971.72" waitingTime="0.00" waitingCount="0" stopTime="0.00" timeLoss="29.82" rerouteNo="0" devices="tripinfo_CVToC.20 routing_CVToC.20 ssm_CVToC.20 toc_CVToC.20 driverstateCVToC.20" vType="vehLVOS880" speedFactor="1.08" vaporized=""/>
    <tripinfo id="CVToC.13" depart="60.50" departLane="entry_0" departPos="3.70" departSpeed="27.49" departDelay="1.60" arrival="240.80" arrivalLane="e0_0" arrivalPos="4800.00" arrivalSpeed="37.42" duration="180.30" routeLength="4996.30" waitingTime="0.00" waitingCount="0" stopTime="0.00" timeLoss="46.78" rerouteNo="0" devices="tripinfo_CVToC.13 routing_CVToC.13 ssm_CVToC.13 toc_CVToC.13 driverstateCVToC.13" vType="vehLVOS243" speedFactor="1.04" vaporized=""/>
    <tripinfo id="CAVToC.26" depart="63.60" departLane="entry_0" departPos="13.38" departSpeed="25.61" departDelay="4.70" arrival="242.10" arrivalLane="e0_0" arrivalPos="4800.00" arrivalSpeed="31.95" duration="178.50" routeLength="4986.62" waitingTime="0.00" waitingCount="0" stopTime="0.00" timeLoss="22.51" rerouteNo="0" devices="tripinfo_CAVToC.26 routing_CAVToC.26 ssm_CAVToC.26 toc_CAVToC.26 driverstateCAVToC.26" vType="vehLVOS533" speedFactor="0.89" vaporized=""/>
    <tripinfo id="CVToC.19" depart="77.80" departLane="entry_0" departPos="20.54" departSpeed="24.15" departDelay="8.00" arrival="242.10" arrivalLane="e0_1" arrivalPos="4800.00" arrivalSpeed="35.38" duration="164.30" routeLength="4979.46" waitingTime="0.00" waitingCount="0" stopTime="0.00" timeLoss="23.94" rerouteNo="0" devices="tripinfo_CVToC.19 routing_CVToC.19 ssm_CVToC.19 toc_CVToC.19 driverstateCVToC.19" vType="vehLVOS466" speedFactor="0.98" vaporized=""/>
    <tripinfo id="CVToC.18" depart="74.40" departLane="entry_0" departPos="19.09" departSpeed="24.90" departDelay="11.80" arrival="243.40" arrivalLane="e0_1" arrivalPos="4800.00" arrivalSpeed="37.07" duration="169.00" routeLength="4980.91" waitingTime="0.00" waitingCount="0" stopTime="0.00" timeLoss="59.08" rerouteNo="0" devices="tripinfo_CVToC.18 routing_CVToC.18 ssm_CVToC.18 toc_CVToC.18 driverstateCVToC.18" vType="vehLVOS73" speedFactor="1.26" vaporized=""/>
    <tripinfo id="CVToC.15" depart="70.70" departLane="entry_0" departPos="105.56" departSpeed="22.70" departDelay="11.00" arrival="243.60" arrivalLane="e0_0" arrivalPos="4800.00" arrivalSpeed="35.15" duration="172.90" routeLength="4894.44" waitingTime="0.00" waitingCount="0" stopTime="0.00" timeLoss="37.73" rerouteNo="0" devices="tripinfo_CVToC.15 routing_CVToC.15 ssm_CVToC.15 toc_CVToC.15 driverstateCVToC.15" vType="vehLVOS424" speedFactor="1.00" vaporized=""/>
    <tripinfo id="CAVToC.27" depart="70.70" departLane="entry_0" departPos="29.49" departSpeed="24.08" departDelay="6.10" arrival="245.10" arrivalLane="e0_0" arrivalPos="4800.00" arrivalSpeed="34.91" duration="174.40" routeLength="4970.51" waitingTime="0.00" waitingCount="0" stopTime="0.00" timeLoss="34.80" rerouteNo="0" devices="tripinfo_CAVToC.27 routing_CAVToC.27 ssm_CAVToC.27 toc_CAVToC.27 driverstateCAVToC.27" vType="vehLVOS819" speedFactor="0.99" vaporized=""/>