<?xml version="1.0" encoding="UTF-8"?>

<!-- generated on 08/27/20 12:19:45 by Eclipse SUMO Version 1.6.0
<configuration xmlns:xsi="http://www.w3.org/2001/XMLSchema-instance" xsi:noNamespaceSchemaLocation="http://sumo.dlr.de/xsd/sumoConfiguration.xsd">

    <input>
        <net-file value="scenario/UC5_1.net.xml"/>
        <route-files value="scenario/routes_trafficMix_0_trafficDemand_1_driverBehaviour_OS_seed_0.xml"/>
        <additional-files value="scenario/additionalsOutput_trafficMix_0_trafficDemand_1_driverBehaviour_OS_seed_0.xml,scenario/vTypesCAVToC_OS.add.xml,scenario/vTypesCVToC_OS.add.xml,scenario/vTypesLV_OS.add.xml,scenario/shapes.add.xml,scenario/view.add.xml"/>
    </input>

    <output>
        <tripinfo-output value="C:\Users\laborknecht\Aris\workspace\tor-distribution/outputs/simulations/DQN__2020-08-26_20-57-26__20200827-113306/tripinfo_9.xml"/>
    </output>

    <time>
        <step-length value="0.1"/>
    </time>

    <processing>
        <step-method.ballistic value="true"/>
        <ignore-route-errors value="true"/>
        <lanechange.duration value="2.5"/>
    </processing>

    <report>
        <no-step-log value="true"/>
    </report>

    <toc_device>
        <device.toc.ogNewTimeHeadway value="100"/>
        <device.toc.ogNewSpaceHeadway value="5"/>
        <device.toc.ogMaxDecel value="1"/>
        <device.toc.ogChangeRate value="1"/>
    </toc_device>

    <traci_server>
        <remote-port value="56311"/>
    </traci_server>

    <random_number>
        <seed value="1033"/>
    </random_number>

    <gui_only>
        <tracker-interval value="0.1"/>
    </gui_only>

</configuration>
-->

<tripinfos xmlns:xsi="http://www.w3.org/2001/XMLSchema-instance" xsi:noNamespaceSchemaLocation="http://sumo.dlr.de/xsd/tripinfo_file.xsd">
    <tripinfo id="CAVToC.1" depart="3.70" departLane="entry_1" departPos="199.90" departSpeed="35.60" departDelay="0.00" arrival="129.80" arrivalLane="e0_0" arrivalPos="4800.00" arrivalSpeed="40.33" duration="126.10" routeLength="4800.10" waitingTime="0.00" waitingCount="0" stopTime="0.00" timeLoss="7.49" rerouteNo="0" devices="tripinfo_CAVToC.1 routing_CAVToC.1 ssm_CAVToC.1 toc_CAVToC.1 driverstateCAVToC.1" vType="vehLVOS374" speedFactor="1.12" vaporized=""/>
    <tripinfo id="CAVToC.2" depart="5.00" departLane="entry_1" departPos="153.29" departSpeed="35.54" departDelay="0.00" arrival="130.40" arrivalLane="e0_1" arrivalPos="4800.00" arrivalSpeed="42.07" duration="125.40" routeLength="4846.71" waitingTime="0.00" waitingCount="0" stopTime="0.00" timeLoss="10.22" rerouteNo="0" devices="tripinfo_CAVToC.2 routing_CAVToC.2 ssm_CAVToC.2 toc_CAVToC.2 driverstateCAVToC.2" vType="vehLVOS746" speedFactor="1.17" vaporized=""/>
    <tripinfo id="CVToC.0" depart="0.30" departLane="entry_0" departPos="199.90" departSpeed="36.57" departDelay="0.00" arrival="131.90" arrivalLane="e0_0" arrivalPos="4800.00" arrivalSpeed="36.54" duration="131.60" routeLength="4800.10" waitingTime="0.00" waitingCount="0" stopTime="0.00" timeLoss="0.26" rerouteNo="0" devices="tripinfo_CVToC.0 routing_CVToC.0 ssm_CVToC.0 toc_CVToC.0 driverstateCVToC.0" vType="vehLVOS588" speedFactor="1.01" vaporized=""/>
    <tripinfo id="CAVToC.0" depart="1.10" departLane="entry_1" departPos="199.90" departSpeed="34.84" departDelay="0.00" arrival="139.10" arrivalLane="e0_0" arrivalPos="4800.00" arrivalSpeed="34.82" duration="138.00" routeLength="4800.10" waitingTime="0.00" waitingCount="0" stopTime="0.00" timeLoss="0.14" rerouteNo="0" devices="tripinfo_CAVToC.0 routing_CAVToC.0 ssm_CAVToC.0 toc_CAVToC.0 driverstateCAVToC.0" vType="vehLVOS22" speedFactor="0.96" vaporized=""/>
    <tripinfo id="CVToC.2" depart="5.10" departLane="entry_1" departPos="81.70" departSpeed="35.72" departDelay="0.00" arrival="141.80" arrivalLane="e0_0" arrivalPos="4800.00" arrivalSpeed="36.38" duration="136.70" routeLength="4918.30" waitingTime="0.00" waitingCount="0" stopTime="0.00" timeLoss="1.57" rerouteNo="0" devices="tripinfo_CVToC.2 routing_CVToC.2 ssm_CVToC.2 toc_CVToC.2 driverstateCVToC.2" vType="vehLVOS292" speedFactor="1.01" vaporized=""/>
    <tripinfo id="CVToC.1" depart="2.60" departLane="entry_0" departPos="199.90" departSpeed="34.22" departDelay="0.00" arrival="143.00" arrivalLane="e0_0" arrivalPos="4800.00" arrivalSpeed="34.21" duration="140.40" routeLength="4800.10" waitingTime="0.00" waitingCount="0" stopTime="0.00" timeLoss="0.11" rerouteNo="0" devices="tripinfo_CVToC.1 routing_CVToC.1 ssm_CVToC.1 toc_CVToC.1 driverstateCVToC.1" vType="vehLVOS968" speedFactor="0.95" vaporized=""/>
    <tripinfo id="CAVToC.3" depart="5.40" departLane="entry_1" departPos="6.43" departSpeed="36.13" departDelay="0.00" arrival="145.50" arrivalLane="e0_1" arrivalPos="4800.00" arrivalSpeed="38.89" duration="140.10" routeLength="4993.57" waitingTime="0.00" waitingCount="0" stopTime="0.00" timeLoss="11.70" rerouteNo="0" devices="tripinfo_CAVToC.3 routing_CAVToC.3 ssm_CAVToC.3 toc_CAVToC.3 driverstateCAVToC.3" vType="vehLVOS277" speedFactor="1.08" vaporized=""/>
    <tripinfo id="CAVToC.4" depart="6.90" departLane="entry_0" departPos="112.30" departSpeed="34.77" departDelay="0.00" arrival="146.20" arrivalLane="e0_1" arrivalPos="4800.00" arrivalSpeed="41.27" duration="139.30" routeLength="4887.70" waitingTime="0.00" waitingCount="0" stopTime="0.00" timeLoss="26.64" rerouteNo="0" devices="tripinfo_CAVToC.4 routing_CAVToC.4 ssm_CAVToC.4 toc_CAVToC.4 driverstateCAVToC.4" vType="vehLVOS376" speedFactor="1.20" vaporized=""/>
    <tripinfo id="CVToC.3" depart="6.80" departLane="entry_0" departPos="199.90" departSpeed="33.72" departDelay="0.20" arrival="149.90" arrivalLane="e0_0" arrivalPos="4800.00" arrivalSpeed="33.72" duration="143.10" routeLength="4800.10" waitingTime="0.00" waitingCount="0" stopTime="0.00" timeLoss="0.69" rerouteNo="0" devices="tripinfo_CVToC.3 routing_CVToC.3 ssm_CVToC.3 toc_CVToC.3 driverstateCVToC.3" vType="vehLVOS844" speedFactor="0.93" vaporized=""/>
    <tripinfo id="CAVToC.6" depart="9.60" departLane="entry_1" departPos="78.07" departSpeed="34.67" departDelay="0.00" arrival="149.90" arrivalLane="e0_1" arrivalPos="4800.00" arrivalSpeed="35.76" duration="140.30" routeLength="4921.93" waitingTime="0.00" waitingCount="0" stopTime="0.00" timeLoss="2.77" rerouteNo="0" devices="tripinfo_CAVToC.6 routing_CAVToC.6 ssm_CAVToC.6 toc_CAVToC.6 driverstateCAVToC.6" vType="vehLVOS672" speedFactor="0.99" vaporized=""/>
    <tripinfo id="CAVToC.8" depart="11.90" departLane="entry_1" departPos="66.00" departSpeed="30.97" departDelay="0.00" arrival="151.40" arrivalLane="e0_1" arrivalPos="4800.00" arrivalSpeed="37.56" duration="139.50" routeLength="4934.00" waitingTime="0.00" waitingCount="0" stopTime="0.00" timeLoss="8.11" rerouteNo="0" devices="tripinfo_CAVToC.8 routing_CAVToC.8 ssm_CAVToC.8 toc_CAVToC.8 driverstateCAVToC.8" vType="vehLVOS602" speedFactor="1.04" vaporized=""/>
    <tripinfo id="CAVToC.10" depart="15.10" departLane="entry_1" departPos="0.98" departSpeed="29.60" departDelay="1.00" arrival="153.00" arrivalLane="e0_1" arrivalPos="4800.00" arrivalSpeed="38.21" duration="137.90" routeLength="4999.02" waitingTime="0.00" waitingCount="0" stopTime="0.00" timeLoss="7.08" rerouteNo="0" devices="tripinfo_CAVToC.10 routing_CAVToC.10 ssm_CAVToC.10 toc_CAVToC.10 driverstateCAVToC.10" vType="vehLVOS280" speedFactor="1.06" vaporized=""/>
    <tripinfo id="CAVToC.5" depart="9.20" departLane="entry_0" departPos="120.28" departSpeed="33.81" departDelay="0.00" arrival="153.30" arrivalLane="e0_0" arrivalPos="4800.00" arrivalSpeed="34.97" duration="144.10" routeLength="4879.72" waitingTime="0.00" waitingCount="0" stopTime="0.00" timeLoss="4.61" rerouteNo="0" devices="tripinfo_CAVToC.5 routing_CAVToC.5 ssm_CAVToC.5 toc_CAVToC.5 driverstateCAVToC.5" vType="vehLVOS29" speedFactor="0.97" vaporized=""/>
    <tripinfo id="CVToC.5" depart="18.20" departLane="entry_1" departPos="2.83" departSpeed="30.61" departDelay="2.00" arrival="155.90" arrivalLane="e0_1" arrivalPos="4800.00" arrivalSpeed="40.60" duration="137.70" routeLength="4997.17" waitingTime="0.00" waitingCount="0" stopTime="0.00" timeLoss="14.82" rerouteNo="0" devices="tripinfo_CVToC.5 routing_CVToC.5 ssm_CVToC.5 toc_CVToC.5 driverstateCVToC.5" vType="vehLVOS703" speedFactor="1.13" vaporized=""/>
    <tripinfo id="LV.1" depart="12.30" departLane="entry_1" departPos="1.64" departSpeed="35.19" departDelay="0.10" arrival="157.00" arrivalLane="e0_0" arrivalPos="4800.00" arrivalSpeed="35.12" duration="144.70" routeLength="4998.36" waitingTime="0.00" waitingCount="0" stopTime="0.00" timeLoss="2.58" rerouteNo="0" devices="tripinfo_LV.1 routing_LV.1 ssm_LV.1" vType="vehLVOS439" speedFactor="0.97" vaporized=""/>
    <tripinfo id="CVToC.4" depart="9.50" departLane="entry_0" departPos="50.02" departSpeed="34.30" departDelay="0.00" arrival="162.00" arrivalLane="e0_1" arrivalPos="4800.00" arrivalSpeed="38.04" duration="152.50" routeLength="4949.98" waitingTime="0.00" waitingCount="0" stopTime="0.00" timeLoss="22.38" rerouteNo="0" devices="tripinfo_CVToC.4 routing_CVToC.4 ssm_CVToC.4 toc_CVToC.4 driverstateCVToC.4" vType="vehLVOS777" speedFactor="1.05" vaporized=""/>
    <tripinfo id="CAVToC.7" depart="11.20" departLane="entry_0" departPos="30.68" departSpeed="33.51" departDelay="0.00" arrival="163.80" arrivalLane="e0_0" arrivalPos="4800.00" arrivalSpeed="35.53" duration="152.60" routeLength="4969.32" waitingTime="0.00" waitingCount="0" stopTime="0.00" timeLoss="12.77" rerouteNo="0" devices="tripinfo_CAVToC.7 routing_CAVToC.7 ssm_CAVToC.7 toc_CAVToC.7 driverstateCAVToC.7" vType="vehLVOS198" speedFactor="0.98" vaporized=""/>
    <tripinfo id="LV.0" depart="10.90" departLane="entry_1" departPos="115.31" departSpeed="30.25" departDelay="0.00" arrival="173.10" arrivalLane="e0_0" arrivalPos="4800.00" arrivalSpeed="30.17" duration="162.20" routeLength="4884.69" waitingTime="0.00" waitingCount="0" stopTime="0.00" timeLoss="0.70" rerouteNo="0" devices="tripinfo_LV.0 routing_LV.0 ssm_LV.0" vType="vehLVOS145" speedFactor="0.84" vaporized=""/>
    <tripinfo id="LV.5" depart="25.30" departLane="entry_1" departPos="5.69" departSpeed="41.55" departDelay="1.40" arrival="179.70" arrivalLane="e0_1" arrivalPos="4800.00" arrivalSpeed="41.52" duration="154.40" routeLength="4994.31" waitingTime="0.00" waitingCount="0" stopTime="0.00" timeLoss="34.12" rerouteNo="0" devices="tripinfo_LV.5 routing_LV.5 ssm_LV.5" vType="vehLVOS788" speedFactor="1.15" vaporized=""/>
    <tripinfo id="LV.3" depart="28.60" departLane="entry_1" departPos="5.69" departSpeed="44.86" departDelay="12.50" arrival="181.30" arrivalLane="e0_1" arrivalPos="4800.00" arrivalSpeed="43.58" duration="152.70" routeLength="4994.31" waitingTime="0.00" waitingCount="0" stopTime="0.00" timeLoss="41.35" rerouteNo="0" devices="tripinfo_LV.3 routing_LV.3 ssm_LV.3" vType="vehLVOS453" speedFactor="1.24" vaporized=""/>
    <tripinfo id="CAVToC.11" depart="20.40" departLane="entry_1" departPos="1.69" departSpeed="30.69" departDelay="0.60" arrival="183.10" arrivalLane="e0_0" arrivalPos="4800.00" arrivalSpeed="31.37" duration="162.70" routeLength="4998.31" waitingTime="0.00" waitingCount="0" stopTime="0.00" timeLoss="3.63" rerouteNo="0" devices="tripinfo_CAVToC.11 routing_CAVToC.11 ssm_CAVToC.11 toc_CAVToC.11 driverstateCAVToC.11" vType="vehLVOS508" speedFactor="0.87" vaporized=""/>
    <tripinfo id="LV.6" depart="29.40" departLane="entry_1" departPos="33.73" departSpeed="36.01" departDelay="0.00" arrival="185.40" arrivalLane="e0_1" arrivalPos="4800.00" arrivalSpeed="35.91" duration="156.00" routeLength="4966.27" waitingTime="0.00" waitingCount="0" stopTime="0.00" timeLoss="17.98" rerouteNo="0" devices="tripinfo_LV.6 routing_LV.6 ssm_LV.6" vType="vehLVOS339" speedFactor="1.00" vaporized=""/>
    <tripinfo id="LV.2" depart="14.60" departLane="entry_1" departPos="72.49" departSpeed="28.65" departDelay="0.00" arrival="186.90" arrivalLane="e0_0" arrivalPos="4800.00" arrivalSpeed="28.61" duration="172.30" routeLength="4927.51" waitingTime="0.00" waitingCount="0" stopTime="0.00" timeLoss="0.25" rerouteNo="0" devices="tripinfo_LV.2 routing_LV.2 ssm_LV.2" vType="vehLVOS14" speedFactor="0.79" vaporized=""/>
    <tripinfo id="LV.4" depart="32.10" departLane="entry_1" departPos="1.11" departSpeed="39.11" departDelay="13.70" arrival="187.60" arrivalLane="e0_1" arrivalPos="4800.00" arrivalSpeed="39.10" duration="155.50" routeLength="4998.89" waitingTime="0.00" waitingCount="0" stopTime="0.00" timeLoss="27.64" rerouteNo="0" devices="tripinfo_LV.4 routing_LV.4 ssm_LV.4" vType="vehLVOS287" speedFactor="1.08" vaporized=""/>
    <tripinfo id="CAVToC.18" depart="34.30" departLane="entry_1" departPos="3.27" departSpeed="36.66" departDelay="1.10" arrival="188.70" arrivalLane="e0_1" arrivalPos="4800.00" arrivalSpeed="38.74" duration="154.40" routeLength="4996.73" waitingTime="0.00" waitingCount="0" stopTime="0.00" timeLoss="30.40" rerouteNo="0" devices="tripinfo_CAVToC.18 routing_CAVToC.18 ssm_CAVToC.18 toc_CAVToC.18 driverstateCAVToC.18" vType="vehLVOS996" speedFactor="1.12" vaporized=""/>
    <tripinfo id="CAVToC.9" depart="13.60" departLane="entry_0" departPos="6.74" departSpeed="31.06" departDelay="0.00" arrival="190.50" arrivalLane="e0_0" arrivalPos="4800.00" arrivalSpeed="31.93" duration="176.90" routeLength="4993.26" waitingTime="0.00" waitingCount="0" stopTime="0.00" timeLoss="64.61" rerouteNo="0" devices="tripinfo_CAVToC.9 routing_CAVToC.9 ssm_CAVToC.9 toc_CAVToC.9 driverstateCAVToC.9" vType="vehLVOS502" speedFactor="1.23" vaporized=""/>
    <tripinfo id="CAVToC.16" depart="32.30" departLane="entry_0" departPos="5.07" departSpeed="30.34" departDelay="0.00" arrival="191.30" arrivalLane="e0_1" arrivalPos="4800.00" arrivalSpeed="34.62" duration="159.00" routeLength="4994.93" waitingTime="0.00" waitingCount="0" stopTime="0.00" timeLoss="14.73" rerouteNo="0" devices="tripinfo_CAVToC.16 routing_CAVToC.16 ssm_CAVToC.16 toc_CAVToC.16 driverstateCAVToC.16" vType="vehLVOS853" speedFactor="0.96" vaporized=""/>
    <tripinfo id="CVToC.6" depart="17.40" departLane="entry_0" departPos="35.01" departSpeed="26.67" departDelay="0.10" arrival="192.10" arrivalLane="e0_0" arrivalPos="4800.00" arrivalSpeed="33.92" duration="174.70" routeLength="4964.99" waitingTime="0.00" waitingCount="0" stopTime="0.00" timeLoss="33.39" rerouteNo="0" devices="tripinfo_CVToC.6 routing_CVToC.6 ssm_CVToC.6 toc_CVToC.6 driverstateCVToC.6" vType="vehLVOS52" speedFactor="0.97" vaporized=""/>
    <tripinfo id="CVToC.7" depart="21.00" departLane="entry_0" departPos="45.98" departSpeed="28.10" departDelay="2.60" arrival="193.80" arrivalLane="e0_0" arrivalPos="4800.00" arrivalSpeed="32.92" duration="172.80" routeLength="4954.02" waitingTime="0.00" waitingCount="0" stopTime="0.00" timeLoss="50.15" rerouteNo="0" devices="tripinfo_CVToC.7 routing_CVToC.7 ssm_CVToC.7 toc_CVToC.7 driverstateCVToC.7" vType="vehLVOS74" speedFactor="1.12" vaporized=""/>
    <tripinfo id="CVToC.10" depart="39.20" departLane="entry_1" departPos="22.13" departSpeed="29.19" departDelay="0.00" arrival="194.20" arrivalLane="e0_1" arrivalPos="4800.00" arrivalSpeed="36.70" duration="155.00" routeLength="4977.87" waitingTime="0.00" waitingCount="0" stopTime="0.00" timeLoss="19.44" rerouteNo="0" devices="tripinfo_CVToC.10 routing_CVToC.10 ssm_CVToC.10 toc_CVToC.10 driverstateCVToC.10" vType="vehLVOS837" speedFactor="1.02" vaporized=""/>
    <tripinfo id="CAVToC.12" depart="23.00" departLane="entry_0" departPos="23.01" departSpeed="28.77" departDelay="0.70" arrival="194.70" arrivalLane="e0_0" arrivalPos="4800.00" arrivalSpeed="34.30" duration="171.70" routeLength="4976.99" waitingTime="0.00" waitingCount="0" stopTime="0.00" timeLoss="29.36" rerouteNo="0" devices="tripinfo_CAVToC.12 routing_CAVToC.12 ssm_CAVToC.12 toc_CAVToC.12 driverstateCAVToC.12" vType="vehLVOS29" speedFactor="0.97" vaporized=""/>
    <tripinfo id="CVToC.11" depart="41.60" departLane="entry_1" departPos="13.15" departSpeed="30.01" departDelay="0.10" arrival="195.90" arrivalLane="e0_1" arrivalPos="4800.00" arrivalSpeed="37.88" duration="154.30" routeLength="4986.85" waitingTime="0.00" waitingCount="0" stopTime="0.00" timeLoss="22.70" rerouteNo="0" devices="tripinfo_CVToC.11 routing_CVToC.11 ssm_CVToC.11 toc_CVToC.11 driverstateCVToC.11" vType="vehLVOS781" speedFactor="1.05" vaporized=""/>
    <tripinfo id="CVToC.8" depart="44.60" departLane="entry_1" departPos="1.14" departSpeed="31.54" departDelay="12.00" arrival="198.00" arrivalLane="e0_1" arrivalPos="4800.00" arrivalSpeed="38.66" duration="153.40" routeLength="4998.86" waitingTime="0.00" waitingCount="0" stopTime="0.00" timeLoss="45.06" rerouteNo="0" devices="tripinfo_CVToC.8 routing_CVToC.8 ssm_CVToC.8 toc_CVToC.8 driverstateCVToC.8" vType="vehLVOS738" speedFactor="1.28" vaporized=""/>
    <tripinfo id="CAVToC.13" depart="24.90" departLane="entry_0" departPos="10.77" departSpeed="28.10" departDelay="1.10" arrival="198.40" arrivalLane="e0_0" arrivalPos="4800.00" arrivalSpeed="29.28" duration="173.50" routeLength="4989.23" waitingTime="0.00" waitingCount="0" stopTime="0.00" timeLoss="3.27" rerouteNo="0" devices="tripinfo_CAVToC.13 routing_CAVToC.13 ssm_CAVToC.13 toc_CAVToC.13 driverstateCAVToC.13" vType="vehLVOS123" speedFactor="0.81" vaporized=""/>
    <tripinfo id="CAVToC.14" depart="27.60" departLane="entry_0" departPos="15.07" departSpeed="28.96" departDelay="0.00" arrival="199.30" arrivalLane="e0_0" arrivalPos="4800.00" arrivalSpeed="31.49" duration="171.70" routeLength="4984.93" waitingTime="0.00" waitingCount="0" stopTime="0.00" timeLoss="18.06" rerouteNo="0" devices="tripinfo_CAVToC.14 routing_CAVToC.14 ssm_CAVToC.14 toc_CAVToC.14 driverstateCAVToC.14" vType="vehLVOS422" speedFactor="0.90" vaporized=""/>
    <tripinfo id="CAVToC.22" depart="47.20" departLane="entry_1" departPos="2.27" departSpeed="31.99" departDelay="0.50" arrival="200.30" arrivalLane="e0_1" arrivalPos="4800.00" arrivalSpeed="37.92" duration="153.10" routeLength="4997.73" waitingTime="0.00" waitingCount="0" stopTime="0.00" timeLoss="21.45" rerouteNo="0" devices="tripinfo_CAVToC.22 routing_CAVToC.22 ssm_CAVToC.22 toc_CAVToC.22 driverstateCAVToC.22" vType="vehLVOS699" speedFactor="1.05" vaporized=""/>
    <tripinfo id="CAVToC.15" depart="30.00" departLane="entry_0" departPos="13.83" departSpeed="29.62" departDelay="1.90" arrival="201.40" arrivalLane="e0_0" arrivalPos="4800.00" arrivalSpeed="31.60" duration="171.40" routeLength="4986.17" waitingTime="0.00" waitingCount="0" stopTime="0.00" timeLoss="14.87" rerouteNo="0" devices="tripinfo_CAVToC.15 routing_CAVToC.15 ssm_CAVToC.15 toc_CAVToC.15 driverstateCAVToC.15" vType="vehLVOS452" speedFactor="0.88" vaporized=""/>
    <tripinfo id="CVToC.13" depart="50.40" departLane="entry_1" departPos="17.76" departSpeed="32.47" departDelay="4.30" arrival="202.60" arrivalLane="e0_0" arrivalPos="4800.00" arrivalSpeed="34.57" duration="152.20" routeLength="4982.24" waitingTime="0.00" waitingCount="0" stopTime="0.00" timeLoss="25.63" rerouteNo="0" devices="tripinfo_CVToC.13 routing_CVToC.13 ssm_CVToC.13 toc_CVToC.13 driverstateCVToC.13" vType="vehLVOS78" speedFactor="1.09" vaporized=""/>
    <tripinfo id="CVToC.15" depart="53.70" departLane="entry_1" departPos="1.59" departSpeed="32.97" departDelay="4.10" arrival="204.90" arrivalLane="e0_1" arrivalPos="4800.00" arrivalSpeed="37.55" duration="151.20" routeLength="4998.41" waitingTime="0.00" waitingCount="0" stopTime="0.00" timeLoss="18.34" rerouteNo="0" devices="tripinfo_CVToC.15 routing_CVToC.15 ssm_CVToC.15 toc_CVToC.15 driverstateCVToC.15" vType="vehLVOS217" speedFactor="1.04" vaporized=""/>
    <tripinfo id="CAVToC.21" depart="43.10" departLane="entry_0" departPos="5.67" departSpeed="27.39" departDelay="3.10" arrival="206.50" arrivalLane="e0_1" arrivalPos="4800.00" arrivalSpeed="38.17" duration="163.40" routeLength="4994.33" waitingTime="0.00" waitingCount="0" stopTime="0.00" timeLoss="32.61" rerouteNo="0" devices="tripinfo_CAVToC.21 routing_CAVToC.21 ssm_CAVToC.21 toc_CAVToC.21 driverstateCAVToC.21" vType="vehLVOS951" speedFactor="1.06" vaporized=""/>
    <tripinfo id="LV.8" depart="51.60" departLane="entry_1" departPos="17.59" departSpeed="32.88" departDelay="3.50" arrival="207.00" arrivalLane="e0_0" arrivalPos="4800.00" arrivalSpeed="32.87" duration="155.40" routeLength="4982.41" waitingTime="0.00" waitingCount="0" stopTime="0.00" timeLoss="3.78" rerouteNo="0" devices="tripinfo_LV.8 routing_LV.8 ssm_LV.8" vType="vehLVOS256" speedFactor="0.91" vaporized=""/>
    <tripinfo id="CAVToC.19" depart="36.30" departLane="entry_1" departPos="19.89" departSpeed="28.23" departDelay="0.10" arrival="213.00" arrivalLane="e0_0" arrivalPos="4800.00" arrivalSpeed="28.14" duration="176.70" routeLength="4980.11" waitingTime="0.00" waitingCount="0" stopTime="0.00" timeLoss="0.24" rerouteNo="0" devices="tripinfo_CAVToC.19 routing_CAVToC.19 ssm_CAVToC.19 toc_CAVToC.19 driverstateCAVToC.19" vType="vehLVOS565" speedFactor="0.78" vaporized=""/>
    <tripinfo id="CAVToC.28" depart="56.20" departLane="entry_1" departPos="14.08" departSpeed="32.53" departDelay="2.10" arrival="214.00" arrivalLane="e0_1" arrivalPos="4800.00" arrivalSpeed="32.50" duration="157.80" routeLength="4985.92" waitingTime="0.00" waitingCount="0" stopTime="0.00" timeLoss="4.49" rerouteNo="0" devices="tripinfo_CAVToC.28 routing_CAVToC.28 ssm_CAVToC.28 toc_CAVToC.28 driverstateCAVToC.28" vType="vehLVOS49" speedFactor="0.90" vaporized=""/>
    <tripinfo id="CAVToC.17" depart="34.90" departLane="entry_0" departPos="6.45" departSpeed="30.92" departDelay="2.10" arrival="214.90" arrivalLane="e0_0" arrivalPos="4800.00" arrivalSpeed="32.45" duration="180.00" routeLength="4993.55" waitingTime="0.00" waitingCount="0" stopTime="0.00" timeLoss="40.65" rerouteNo="0" devices="tripinfo_CAVToC.17 routing_CAVToC.17 ssm_CAVToC.17 toc_CAVToC.17 driverstateCAVToC.17" vType="vehLVOS298" speedFactor="0.99" vaporized=""/>
    <tripinfo id="CVToC.9" depart="37.30" departLane="entry_0" departPos="1.98" departSpeed="31.10" departDelay="2.50" arrival="215.90" arrivalLane="e0_0" arrivalPos="4800.00" arrivalSpeed="32.57" duration="178.60" routeLength="4998.02" waitingTime="0.00" waitingCount="0" stopTime="0.00" timeLoss="34.99" rerouteNo="0" devices="tripinfo_CVToC.9 routing_CVToC.9 ssm_CVToC.9 toc_CVToC.9 driverstateCVToC.9" vType="vehLVOS844" speedFactor="0.96" vaporized=""/>
    <tripinfo id="CAVToC.26" depart="58.30" departLane="entry_1" departPos="0.46" departSpeed="33.16" departDelay="6.60" arrival="216.50" arrivalLane="e0_1" arrivalPos="4800.00" arrivalSpeed="37.42" duration="158.20" routeLength="4999.54" waitingTime="0.00" waitingCount="0" stopTime="0.00" timeLoss="30.37" rerouteNo="0" devices="tripinfo_CAVToC.26 routing_CAVToC.26 ssm_CAVToC.26 toc_CAVToC.26 driverstateCAVToC.26" vType="vehLVOS114" speedFactor="1.08" vaporized=""/>
    <tripinfo id="CAVToC.20" depart="39.80" departLane="entry_0" departPos="3.76" departSpeed="27.74" departDelay="0.20" arrival="217.80" arrivalLane="e0_0" arrivalPos="4800.00" arrivalSpeed="32.50" duration="178.00" routeLength="4996.24" waitingTime="0.00" waitingCount="0" stopTime="0.00" timeLoss="24.24" rerouteNo="0" devices="tripinfo_CAVToC.20 routing_CAVToC.20 ssm_CAVToC.20 toc_CAVToC.20 driverstateCAVToC.20" vType="vehLVOS267" speedFactor="0.90" vaporized=""/>
    <tripinfo id="CVToC.12" depart="45.30" departLane="entry_0" departPos="1.48" departSpeed="27.18" departDelay="0.10" arrival="220.20" arrivalLane="e0_0" arrivalPos="4800.00" arrivalSpeed="28.77" duration="174.90" routeLength="4998.52" waitingTime="0.00" waitingCount="0" stopTime="0.00" timeLoss="1.61" rerouteNo="0" devices="tripinfo_CVToC.12 routing_CVToC.12 ssm_CVToC.12 toc_CVToC.12 driverstateCVToC.12" vType="vehLVOS857" speedFactor="0.80" vaporized=""/>
    <tripinfo id="CVToC.17" depart="60.60" departLane="entry_1" departPos="7.86" departSpeed="33.01" departDelay="5.60" arrival="220.20" arrivalLane="e0_1" arrivalPos="4800.00" arrivalSpeed="33.34" duration="159.60" routeLength="4992.14" waitingTime="0.00" waitingCount="0" stopTime="0.00" timeLoss="9.92" rerouteNo="0" devices="tripinfo_CVToC.17 routing_CVToC.17 ssm_CVToC.17 toc_CVToC.17 driverstateCVToC.17" vType="vehLVOS716" speedFactor="0.92" vaporized=""/>
    <tripinfo id="CAVToC.23" depart="48.40" departLane="entry_0" departPos="12.88" departSpeed="28.49" departDelay="0.70" arrival="221.20" arrivalLane="e0_0" arrivalPos="4800.00" arrivalSpeed="30.31" duration="172.80" routeLength="4987.12" waitingTime="0.00" waitingCount="0" stopTime="0.00" timeLoss="24.38" rerouteNo="0" devices="tripinfo_CAVToC.23 routing_CAVToC.23 ssm_CAVToC.23 toc_CAVToC.23 driverstateCAVToC.23" vType="vehLVOS252" speedFactor="0.93" vaporized=""/>
    <tripinfo id="CVToC.19" depart="62.80" departLane="entry_1" departPos="11.32" departSpeed="32.74" departDelay="3.30" arrival="222.40" arrivalLane="e0_1" arrivalPos="4800.00" arrivalSpeed="32.73" duration="159.60" routeLength="4988.68" waitingTime="0.00" waitingCount="0" stopTime="0.00" timeLoss="7.22" rerouteNo="0" devices="tripinfo_CVToC.19 routing_CVToC.19 ssm_CVToC.19 toc_CVToC.19 driverstateCVToC.19" vType="vehLVOS846" speedFactor="0.91" vaporized=""/>
    <tripinfo id="CVToC.14" depart="50.50" departLane="entry_0" departPos="2.07" departSpeed="29.41" departDelay="1.00" arrival="223.00" arrivalLane="e0_0" arrivalPos="4800.00" arrivalSpeed="33.23" duration="172.50" routeLength="4997.93" waitingTime="0.00" waitingCount="0" stopTime="0.00" timeLoss="24.70" rerouteNo="0" devices="tripinfo_CVToC.14 routing_CVToC.14 ssm_CVToC.14 toc_CVToC.14 driverstateCVToC.14" vType="vehLVOS966" speedFactor="0.94" vaporized=""/>
    <tripinfo id="LV.11" depart="65.90" departLane="entry_1" departPos="4.62" departSpeed="34.05" departDelay="2.40" arrival="223.50" arrivalLane="e0_1" arrivalPos="4800.00" arrivalSpeed="34.05" duration="157.60" routeLength="4995.38" waitingTime="0.00" waitingCount="0" stopTime="0.00" timeLoss="10.82" rerouteNo="0" devices="tripinfo_LV.11 routing_LV.11 ssm_LV.11" vType="vehLVOS311" speedFactor="0.94" vaporized=""/>
    <tripinfo id="CAVToC.25" depart="55.90" departLane="entry_0" departPos="5.75" departSpeed="30.87" departDelay="5.60" arrival="224.40" arrivalLane="e0_1" arrivalPos="4800.00" arrivalSpeed="35.28" duration="168.50" routeLength="4994.25" waitingTime="0.00" waitingCount="0" stopTime="0.00" timeLoss="34.54" rerouteNo="0" devices="tripinfo_CAVToC.25 routing_CAVToC.25 ssm_CAVToC.25 toc_CAVToC.25 driverstateCAVToC.25" vType="vehLVOS489" speedFactor="1.03" vaporized=""/>
    <tripinfo id="CAVToC.24" depart="53.20" departLane="entry_0" departPos="5.67" departSpeed="30.12" departDelay="3.40" arrival="225.90" arrivalLane="e0_0" arrivalPos="4800.00" arrivalSpeed="33.58" duration="172.70" routeLength="4994.33" waitingTime="0.00" waitingCount="0" stopTime="0.00" timeLoss="24.06" rerouteNo="0" devices="tripinfo_CAVToC.24 routing_CAVToC.24 ssm_CAVToC.24 toc_CAVToC.24 driverstateCAVToC.24" vType="vehLVOS122" speedFactor="0.93" vaporized=""/>
    <tripinfo id="CVToC.20" depart="68.50" departLane="entry_1" departPos="12.06" departSpeed="33.48" departDelay="4.90" arrival="226.30" arrivalLane="e0_1" arrivalPos="4800.00" arrivalSpeed="37.22" duration="157.80" routeLength="4987.94" waitingTime="0.00" waitingCount="0" stopTime="0.00" timeLoss="23.83" rerouteNo="0" devices="tripinfo_CVToC.20 routing_CVToC.20 ssm_CVToC.20 toc_CVToC.20 driverstateCVToC.20" vType="vehLVOS562" speedFactor="1.03" vaporized=""/>
    <tripinfo id="LV.9" depart="62.80" departLane="entry_1" departPos="3.72" departSpeed="28.15" departDelay="0.10" arrival="242.50" arrivalLane="e0_0" arrivalPos="4800.00" arrivalSpeed="28.15" duration="179.70" routeLength="4996.28" waitingTime="0.00" waitingCount="0" stopTime="0.00" timeLoss="2.24" rerouteNo="0" devices="tripinfo_LV.9 routing_LV.9 ssm_LV.9" vType="vehLVOS227" speedFactor="0.78" vaporized=""/>
    <tripinfo id="CAVToC.27" depart="58.10" departLane="entry_0" departPos="0.08" departSpeed="31.03" departDelay="5.40" arrival="243.40" arrivalLane="e0_0" arrivalPos="4800.00" arrivalSpeed="30.34" duration="185.30" routeLength="4999.92" waitingTime="0.00" waitingCount="0" stopTime="0.00" timeLoss="33.01" rerouteNo="0" devices="tripinfo_CAVToC.27 routing_CAVToC.27 ssm_CAVToC.27 toc_CAVToC.27 driverstateCAVToC.27" vType="vehLVOS181" speedFactor="0.91" vaporized=""/>
    <tripinfo id="LV.10" depart="64.10" departLane="entry_0" departPos="9.46" departSpeed="28.40" departDelay="0.70" arrival="245.70" arrivalLane="e0_1" arrivalPos="4800.00" arrivalSpeed="28.32" duration="181.60" routeLength="4990.54" waitingTime="0.00" waitingCount="0" stopTime="0.00" timeLoss="5.83" rerouteNo="0" devices="tripinfo_LV.10 routing_LV.10 ssm_LV.10" vType="vehLVOS690" speedFactor="0.79" vaporized=""/>
    <tripinfo id="CVToC.16" depart="61.00" departLane="entry_0" departPos="12.02" departSpeed="31.09" departDelay="9.20" arrival="246.40" arrivalLane="e0_0" arrivalPos="4800.00" arrivalSpeed="34.12" duration="185.40" routeLength="4987.98" waitingTime="0.00" waitingCount="0" stopTime="0.00" timeLoss="44.08" rerouteNo="0" devices="tripinfo_CVToC.16 routing_CVToC.16 ssm_CVToC.16 toc_CVToC.16 driverstateCVToC.16" vType="vehLVOS265" speedFactor="0.98" vaporized=""/>
    <tripinfo id="CVToC.21" depart="70.50" departLane="entry_1" departPos="0.78" departSpeed="33.43" departDelay="5.60" arrival="246.60" arrivalLane="e0_1" arrivalPos="4800.00" arrivalSpeed="29.16" duration="176.10" routeLength="4999.22" waitingTime="0.00" waitingCount="0" stopTime="0.00" timeLoss="43.32" rerouteNo="0" devices="tripinfo_CVToC.21 routing_CVToC.21 ssm_CVToC.21 toc_CVToC.21 driverstateCVToC.21" vType="vehLVOS5" speedFactor="1.04" vaporized=""/>