<?xml version="1.0" encoding="UTF-8"?>

<!-- generated on 08/27/20 12:25:40 by Eclipse SUMO Version 1.6.0
<configuration xmlns:xsi="http://www.w3.org/2001/XMLSchema-instance" xsi:noNamespaceSchemaLocation="http://sumo.dlr.de/xsd/sumoConfiguration.xsd">

    <input>
        <net-file value="scenario/UC5_1.net.xml"/>
        <route-files value="scenario/routes_trafficMix_0_trafficDemand_1_driverBehaviour_OS_seed_0.xml"/>
        <additional-files value="scenario/additionalsOutput_trafficMix_0_trafficDemand_1_driverBehaviour_OS_seed_0.xml,scenario/vTypesCAVToC_OS.add.xml,scenario/vTypesCVToC_OS.add.xml,scenario/vTypesLV_OS.add.xml,scenario/shapes.add.xml,scenario/view.add.xml"/>
    </input>

    <output>
        <tripinfo-output value="C:\Users\laborknecht\Aris\workspace\tor-distribution/outputs/simulations/DQN__2020-08-26_20-57-26__20200827-113306/tripinfo_10.xml"/>
    </output>

    <time>
        <step-length value="0.1"/>
    </time>

    <processing>
        <step-method.ballistic value="true"/>
        <ignore-route-errors value="true"/>
        <lanechange.duration value="2.5"/>
    </processing>

    <report>
        <no-step-log value="true"/>
    </report>

    <toc_device>
        <device.toc.ogNewTimeHeadway value="100"/>
        <device.toc.ogNewSpaceHeadway value="5"/>
        <device.toc.ogMaxDecel value="1"/>
        <device.toc.ogChangeRate value="1"/>
    </toc_device>

    <traci_server>
        <remote-port value="56316"/>
    </traci_server>

    <random_number>
        <seed value="1034"/>
    </random_number>

    <gui_only>
        <tracker-interval value="0.1"/>
    </gui_only>

</configuration>
-->

<tripinfos xmlns:xsi="http://www.w3.org/2001/XMLSchema-instance" xsi:noNamespaceSchemaLocation="http://sumo.dlr.de/xsd/tripinfo_file.xsd">
    <tripinfo id="CAVToC.0" depart="0.40" departLane="entry_1" departPos="199.90" departSpeed="38.23" departDelay="0.00" arrival="126.00" arrivalLane="e0_0" arrivalPos="4800.00" arrivalSpeed="38.23" duration="125.60" routeLength="4800.10" waitingTime="0.00" waitingCount="0" stopTime="0.00" timeLoss="0.00" rerouteNo="0" devices="tripinfo_CAVToC.0 routing_CAVToC.0 ssm_CAVToC.0 toc_CAVToC.0 driverstateCAVToC.0" vType="vehLVOS19" speedFactor="1.06" vaporized=""/>
    <tripinfo id="LV.0" depart="0.30" departLane="entry_0" departPos="199.90" departSpeed="37.20" departDelay="0.00" arrival="129.40" arrivalLane="e0_0" arrivalPos="4800.00" arrivalSpeed="37.20" duration="129.10" routeLength="4800.10" waitingTime="0.00" waitingCount="0" stopTime="0.00" timeLoss="0.07" rerouteNo="0" devices="tripinfo_LV.0 routing_LV.0 ssm_LV.0" vType="vehLVOS597" speedFactor="1.03" vaporized=""/>
    <tripinfo id="LV.1" depart="2.50" departLane="entry_0" departPos="86.22" departSpeed="42.96" departDelay="0.00" arrival="133.90" arrivalLane="e0_1" arrivalPos="4800.00" arrivalSpeed="42.92" duration="131.40" routeLength="4913.78" waitingTime="0.00" waitingCount="0" stopTime="0.00" timeLoss="16.93" rerouteNo="0" devices="tripinfo_LV.1 routing_LV.1 ssm_LV.1" vType="vehLVOS538" speedFactor="1.19" vaporized=""/>
    <tripinfo id="CVToC.1" depart="5.10" departLane="entry_1" departPos="5.56" departSpeed="35.37" departDelay="1.00" arrival="134.90" arrivalLane="e0_1" arrivalPos="4800.00" arrivalSpeed="45.38" duration="129.80" routeLength="4994.44" waitingTime="0.00" waitingCount="0" stopTime="0.00" timeLoss="19.68" rerouteNo="0" devices="tripinfo_CVToC.1 routing_CVToC.1 ssm_CVToC.1 toc_CVToC.1 driverstateCVToC.1" vType="vehLVOS77" speedFactor="1.26" vaporized=""/>
    <tripinfo id="LV.2" depart="2.60" departLane="entry_0" departPos="12.74" departSpeed="38.13" departDelay="0.00" arrival="136.70" arrivalLane="e0_0" arrivalPos="4800.00" arrivalSpeed="38.13" duration="134.10" routeLength="4987.26" waitingTime="0.00" waitingCount="0" stopTime="0.00" timeLoss="3.27" rerouteNo="0" devices="tripinfo_LV.2 routing_LV.2 ssm_LV.2" vType="vehLVOS68" speedFactor="1.06" vaporized=""/>
    <tripinfo id="CVToC.2" depart="7.40" departLane="entry_1" departPos="2.63" departSpeed="35.44" departDelay="0.80" arrival="142.10" arrivalLane="e0_1" arrivalPos="4800.00" arrivalSpeed="37.73" duration="134.70" routeLength="4997.37" waitingTime="0.00" waitingCount="0" stopTime="0.00" timeLoss="2.41" rerouteNo="0" devices="tripinfo_CVToC.2 routing_CVToC.2 ssm_CVToC.2 toc_CVToC.2 driverstateCVToC.2" vType="vehLVOS697" speedFactor="1.05" vaporized=""/>
    <tripinfo id="CVToC.0" depart="1.60" departLane="entry_0" departPos="175.80" departSpeed="34.44" departDelay="0.00" arrival="142.20" arrivalLane="e0_0" arrivalPos="4800.00" arrivalSpeed="34.43" duration="140.60" routeLength="4824.20" waitingTime="0.00" waitingCount="0" stopTime="0.00" timeLoss="0.49" rerouteNo="0" devices="tripinfo_CVToC.0 routing_CVToC.0 ssm_CVToC.0 toc_CVToC.0 driverstateCVToC.0" vType="vehLVOS869" speedFactor="0.95" vaporized=""/>
    <tripinfo id="LV.3" depart="4.20" departLane="entry_0" departPos="22.95" departSpeed="37.17" departDelay="0.30" arrival="143.80" arrivalLane="e0_1" arrivalPos="4800.00" arrivalSpeed="37.17" duration="139.60" routeLength="4977.05" waitingTime="0.00" waitingCount="0" stopTime="0.00" timeLoss="5.68" rerouteNo="0" devices="tripinfo_LV.3 routing_LV.3 ssm_LV.3" vType="vehLVOS180" speedFactor="1.03" vaporized=""/>
    <tripinfo id="CAVToC.1" depart="0.70" departLane="entry_1" departPos="141.00" departSpeed="34.09" departDelay="0.00" arrival="145.40" arrivalLane="e0_0" arrivalPos="4800.00" arrivalSpeed="34.06" duration="144.70" routeLength="4859.00" waitingTime="0.00" waitingCount="0" stopTime="0.00" timeLoss="2.17" rerouteNo="0" devices="tripinfo_CAVToC.1 routing_CAVToC.1 ssm_CAVToC.1 toc_CAVToC.1 driverstateCAVToC.1" vType="vehLVOS85" speedFactor="0.94" vaporized=""/>
    <tripinfo id="CAVToC.2" depart="2.20" departLane="entry_1" departPos="120.38" departSpeed="33.71" departDelay="0.00" arrival="149.20" arrivalLane="e0_0" arrivalPos="4800.00" arrivalSpeed="33.71" duration="147.00" routeLength="4879.62" waitingTime="0.00" waitingCount="0" stopTime="0.00" timeLoss="2.20" rerouteNo="0" devices="tripinfo_CAVToC.2 routing_CAVToC.2 ssm_CAVToC.2 toc_CAVToC.2 driverstateCAVToC.2" vType="vehLVOS9" speedFactor="0.93" vaporized=""/>
    <tripinfo id="CAVToC.3" depart="6.00" departLane="entry_0" departPos="1.79" departSpeed="35.63" departDelay="0.30" arrival="151.20" arrivalLane="e0_1" arrivalPos="4800.00" arrivalSpeed="39.12" duration="145.20" routeLength="4998.21" waitingTime="0.00" waitingCount="0" stopTime="0.00" timeLoss="17.44" rerouteNo="0" devices="tripinfo_CAVToC.3 routing_CAVToC.3 ssm_CAVToC.3 toc_CAVToC.3 driverstateCAVToC.3" vType="vehLVOS277" speedFactor="1.08" vaporized=""/>
    <tripinfo id="CAVToC.5" depart="9.60" departLane="entry_1" departPos="12.59" departSpeed="32.64" departDelay="1.20" arrival="163.00" arrivalLane="e0_1" arrivalPos="4800.00" arrivalSpeed="32.63" duration="153.40" routeLength="4987.41" waitingTime="0.00" waitingCount="0" stopTime="0.00" timeLoss="0.55" rerouteNo="0" devices="tripinfo_CAVToC.5 routing_CAVToC.5 ssm_CAVToC.5 toc_CAVToC.5 driverstateCAVToC.5" vType="vehLVOS491" speedFactor="0.90" vaporized=""/>
    <tripinfo id="CVToC.3" depart="10.40" departLane="entry_0" departPos="1.03" departSpeed="35.60" departDelay="1.90" arrival="164.10" arrivalLane="e0_1" arrivalPos="4800.00" arrivalSpeed="35.19" duration="153.70" routeLength="4998.97" waitingTime="0.00" waitingCount="0" stopTime="0.00" timeLoss="20.76" rerouteNo="0" devices="tripinfo_CVToC.3 routing_CVToC.3 ssm_CVToC.3 toc_CVToC.3 driverstateCVToC.3" vType="vehLVOS19" speedFactor="1.04" vaporized=""/>
    <tripinfo id="CAVToC.4" depart="8.30" departLane="entry_0" departPos="6.70" departSpeed="35.50" departDelay="0.10" arrival="164.20" arrivalLane="e0_0" arrivalPos="4800.00" arrivalSpeed="33.84" duration="155.90" routeLength="4993.30" waitingTime="0.00" waitingCount="0" stopTime="0.00" timeLoss="16.70" rerouteNo="0" devices="tripinfo_CAVToC.4 routing_CAVToC.4 ssm_CAVToC.4 toc_CAVToC.4 driverstateCAVToC.4" vType="vehLVOS139" speedFactor="0.99" vaporized=""/>
    <tripinfo id="CAVToC.6" depart="11.90" departLane="entry_1" departPos="5.62" departSpeed="33.36" departDelay="3.20" arrival="165.60" arrivalLane="e0_1" arrivalPos="4800.00" arrivalSpeed="36.67" duration="153.70" routeLength="4994.38" waitingTime="0.00" waitingCount="0" stopTime="0.00" timeLoss="25.14" rerouteNo="0" devices="tripinfo_CAVToC.6 routing_CAVToC.6 ssm_CAVToC.6 toc_CAVToC.6 driverstateCAVToC.6" vType="vehLVOS168" speedFactor="1.08" vaporized=""/>
    <tripinfo id="CVToC.5" depart="12.70" departLane="entry_0" departPos="9.14" departSpeed="32.85" departDelay="2.00" arrival="167.50" arrivalLane="e0_0" arrivalPos="4800.00" arrivalSpeed="33.66" duration="154.80" routeLength="4990.86" waitingTime="0.00" waitingCount="0" stopTime="0.00" timeLoss="6.55" rerouteNo="0" devices="tripinfo_CVToC.5 routing_CVToC.5 ssm_CVToC.5 toc_CVToC.5 driverstateCVToC.5" vType="vehLVOS863" speedFactor="0.93" vaporized=""/>
    <tripinfo id="CVToC.6" depart="13.90" departLane="entry_1" departPos="11.65" departSpeed="29.80" departDelay="1.60" arrival="182.30" arrivalLane="e0_1" arrivalPos="4800.00" arrivalSpeed="29.80" duration="168.40" routeLength="4988.35" waitingTime="0.00" waitingCount="0" stopTime="0.00" timeLoss="1.02" rerouteNo="0" devices="tripinfo_CVToC.6 routing_CVToC.6 ssm_CVToC.6 toc_CVToC.6 driverstateCVToC.6" vType="vehLVOS853" speedFactor="0.83" vaporized=""/>
    <tripinfo id="CVToC.4" depart="14.90" departLane="entry_0" departPos="4.88" departSpeed="33.08" departDelay="5.60" arrival="183.90" arrivalLane="e0_0" arrivalPos="4800.00" arrivalSpeed="32.03" duration="169.00" routeLength="4995.12" waitingTime="0.00" waitingCount="0" stopTime="0.00" timeLoss="26.33" rerouteNo="0" devices="tripinfo_CVToC.4 routing_CVToC.4 ssm_CVToC.4 toc_CVToC.4 driverstateCVToC.4" vType="vehLVOS20" speedFactor="0.97" vaporized=""/>
    <tripinfo id="CAVToC.7" depart="16.30" departLane="entry_1" departPos="1.95" departSpeed="30.61" departDelay="1.00" arrival="183.90" arrivalLane="e0_1" arrivalPos="4800.00" arrivalSpeed="31.24" duration="167.60" routeLength="4998.05" waitingTime="0.00" waitingCount="0" stopTime="0.00" timeLoss="31.14" rerouteNo="0" devices="tripinfo_CAVToC.7 routing_CAVToC.7 ssm_CAVToC.7 toc_CAVToC.7 driverstateCAVToC.7" vType="vehLVOS224" speedFactor="1.01" vaporized=""/>
    <tripinfo id="CVToC.7" depart="17.50" departLane="entry_0" departPos="5.38" departSpeed="30.63" departDelay="1.90" arrival="186.20" arrivalLane="e0_0" arrivalPos="4800.00" arrivalSpeed="34.23" duration="168.70" routeLength="4994.62" waitingTime="0.00" waitingCount="0" stopTime="0.00" timeLoss="33.67" rerouteNo="0" devices="tripinfo_CVToC.7 routing_CVToC.7 ssm_CVToC.7 toc_CVToC.7 driverstateCVToC.7" vType="vehLVOS138" speedFactor="1.02" vaporized=""/>
    <tripinfo id="CVToC.8" depart="19.80" departLane="entry_1" departPos="32.70" departSpeed="30.92" departDelay="3.00" arrival="188.00" arrivalLane="e0_1" arrivalPos="4800.00" arrivalSpeed="34.10" duration="168.20" routeLength="4967.30" waitingTime="0.00" waitingCount="0" stopTime="0.00" timeLoss="22.50" rerouteNo="0" devices="tripinfo_CVToC.8 routing_CVToC.8 ssm_CVToC.8 toc_CVToC.8 driverstateCVToC.8" vType="vehLVOS986" speedFactor="0.94" vaporized=""/>
    <tripinfo id="CAVToC.9" depart="22.50" departLane="entry_1" departPos="29.57" departSpeed="31.77" departDelay="2.40" arrival="189.30" arrivalLane="e0_1" arrivalPos="4800.00" arrivalSpeed="35.10" duration="166.80" routeLength="4970.43" waitingTime="0.00" waitingCount="0" stopTime="0.00" timeLoss="41.94" rerouteNo="0" devices="tripinfo_CAVToC.9 routing_CAVToC.9 ssm_CAVToC.9 toc_CAVToC.9 driverstateCAVToC.9" vType="vehLVOS610" speedFactor="1.10" vaporized=""/>
    <tripinfo id="LV.6" depart="22.30" departLane="entry_0" departPos="1.22" departSpeed="37.17" departDelay="6.60" arrival="190.10" arrivalLane="e0_0" arrivalPos="4800.00" arrivalSpeed="36.92" duration="167.80" routeLength="4998.78" waitingTime="0.00" waitingCount="0" stopTime="0.00" timeLoss="33.29" rerouteNo="0" devices="tripinfo_LV.6 routing_LV.6 ssm_LV.6" vType="vehLVOS298" speedFactor="1.03" vaporized=""/>
    <tripinfo id="CAVToC.8" depart="24.50" departLane="entry_1" departPos="2.37" departSpeed="32.82" departDelay="7.60" arrival="190.50" arrivalLane="e0_1" arrivalPos="4800.00" arrivalSpeed="37.10" duration="166.00" routeLength="4997.63" waitingTime="0.00" waitingCount="0" stopTime="0.00" timeLoss="49.51" rerouteNo="0" devices="tripinfo_CAVToC.8 routing_CAVToC.8 ssm_CAVToC.8 toc_CAVToC.8 driverstateCAVToC.8" vType="vehLVOS768" speedFactor="1.19" vaporized=""/>
    <tripinfo id="LV.5" depart="26.40" departLane="entry_0" departPos="0.60" departSpeed="40.06" departDelay="12.20" arrival="191.70" arrivalLane="e0_0" arrivalPos="4800.00" arrivalSpeed="38.02" duration="165.30" routeLength="4999.40" waitingTime="0.00" waitingCount="0" stopTime="0.00" timeLoss="40.42" rerouteNo="0" devices="tripinfo_LV.5 routing_LV.5 ssm_LV.5" vType="vehLVOS198" speedFactor="1.11" vaporized=""/>
    <tripinfo id="CAVToC.10" depart="26.90" departLane="entry_1" departPos="2.78" departSpeed="32.83" departDelay="0.10" arrival="192.30" arrivalLane="e0_1" arrivalPos="4800.00" arrivalSpeed="35.19" duration="165.40" routeLength="4997.22" waitingTime="0.00" waitingCount="0" stopTime="0.00" timeLoss="23.46" rerouteNo="0" devices="tripinfo_CAVToC.10 routing_CAVToC.10 ssm_CAVToC.10 toc_CAVToC.10 driverstateCAVToC.10" vType="vehLVOS914" speedFactor="0.98" vaporized=""/>
    <tripinfo id="CVToC.9" depart="29.90" departLane="entry_1" departPos="19.74" departSpeed="32.47" departDelay="2.80" arrival="193.30" arrivalLane="e0_1" arrivalPos="4800.00" arrivalSpeed="35.84" duration="163.40" routeLength="4980.26" waitingTime="0.00" waitingCount="0" stopTime="0.00" timeLoss="25.08" rerouteNo="0" devices="tripinfo_CVToC.9 routing_CVToC.9 ssm_CVToC.9 toc_CVToC.9 driverstateCVToC.9" vType="vehLVOS477" speedFactor="1.00" vaporized=""/>
    <tripinfo id="CAVToC.11" depart="29.00" departLane="entry_0" departPos="19.61" departSpeed="34.12" departDelay="1.00" arrival="193.80" arrivalLane="e0_0" arrivalPos="4800.00" arrivalSpeed="35.11" duration="164.80" routeLength="4980.39" waitingTime="0.00" waitingCount="0" stopTime="0.00" timeLoss="23.19" rerouteNo="0" devices="tripinfo_CAVToC.11 routing_CAVToC.11 ssm_CAVToC.11 toc_CAVToC.11 driverstateCAVToC.11" vType="vehLVOS892" speedFactor="0.97" vaporized=""/>
    <tripinfo id="LV.7" depart="32.90" departLane="entry_1" departPos="6.02" departSpeed="40.43" departDelay="6.50" arrival="194.20" arrivalLane="e0_1" arrivalPos="4800.00" arrivalSpeed="36.83" duration="161.30" routeLength="4993.98" waitingTime="0.00" waitingCount="0" stopTime="0.00" timeLoss="37.71" rerouteNo="0" devices="tripinfo_LV.7 routing_LV.7 ssm_LV.7" vType="vehLVOS383" speedFactor="1.12" vaporized=""/>
    <tripinfo id="CAVToC.13" depart="35.80" departLane="entry_1" departPos="35.68" departSpeed="36.67" departDelay="4.20" arrival="196.10" arrivalLane="e0_1" arrivalPos="4800.00" arrivalSpeed="39.28" duration="160.30" routeLength="4964.32" waitingTime="0.00" waitingCount="0" stopTime="0.00" timeLoss="37.52" rerouteNo="0" devices="tripinfo_CAVToC.13 routing_CAVToC.13 ssm_CAVToC.13 toc_CAVToC.13 driverstateCAVToC.13" vType="vehLVOS292" speedFactor="1.12" vaporized=""/>
    <tripinfo id="CVToC.13" depart="38.20" departLane="entry_1" departPos="42.58" departSpeed="35.27" departDelay="4.10" arrival="196.90" arrivalLane="e0_1" arrivalPos="4800.00" arrivalSpeed="37.94" duration="158.70" routeLength="4957.42" waitingTime="0.00" waitingCount="0" stopTime="0.00" timeLoss="28.09" rerouteNo="0" devices="tripinfo_CVToC.13 routing_CVToC.13 ssm_CVToC.13 toc_CVToC.13 driverstateCVToC.13" vType="vehLVOS666" speedFactor="1.05" vaporized=""/>
    <tripinfo id="CVToC.14" depart="39.60" departLane="entry_1" departPos="12.25" departSpeed="34.77" departDelay="3.70" arrival="198.70" arrivalLane="e0_0" arrivalPos="4800.00" arrivalSpeed="36.54" duration="159.10" routeLength="4987.75" waitingTime="0.00" waitingCount="0" stopTime="0.00" timeLoss="22.62" rerouteNo="0" devices="tripinfo_CVToC.14 routing_CVToC.14 ssm_CVToC.14 toc_CVToC.14 driverstateCVToC.14" vType="vehLVOS95" speedFactor="1.01" vaporized=""/>
    <tripinfo id="CVToC.12" depart="42.00" departLane="entry_1" departPos="21.80" departSpeed="33.48" departDelay="9.50" arrival="199.40" arrivalLane="e0_1" arrivalPos="4800.00" arrivalSpeed="35.09" duration="157.40" routeLength="4978.20" waitingTime="0.00" waitingCount="0" stopTime="0.00" timeLoss="15.60" rerouteNo="0" devices="tripinfo_CVToC.12 routing_CVToC.12 ssm_CVToC.12 toc_CVToC.12 driverstateCVToC.12" vType="vehLVOS461" speedFactor="0.97" vaporized=""/>
    <tripinfo id="CAVToC.12" depart="31.40" departLane="entry_0" departPos="25.71" departSpeed="31.53" departDelay="1.80" arrival="200.40" arrivalLane="e0_0" arrivalPos="4800.00" arrivalSpeed="34.22" duration="169.00" routeLength="4974.29" waitingTime="0.00" waitingCount="0" stopTime="0.00" timeLoss="24.23" rerouteNo="0" devices="tripinfo_CAVToC.12 routing_CAVToC.12 ssm_CAVToC.12 toc_CAVToC.12 driverstateCAVToC.12" vType="vehLVOS374" speedFactor="0.95" vaporized=""/>
    <tripinfo id="CVToC.10" depart="33.40" departLane="entry_0" departPos="2.98" departSpeed="31.56" departDelay="2.60" arrival="200.80" arrivalLane="e0_1" arrivalPos="4800.00" arrivalSpeed="38.28" duration="167.40" routeLength="4997.02" waitingTime="0.00" waitingCount="0" stopTime="0.00" timeLoss="37.59" rerouteNo="0" devices="tripinfo_CVToC.10 routing_CVToC.10 ssm_CVToC.10 toc_CVToC.10 driverstateCVToC.10" vType="vehLVOS51" speedFactor="1.07" vaporized=""/>
    <tripinfo id="CVToC.15" depart="47.50" departLane="entry_1" departPos="55.38" departSpeed="30.71" departDelay="2.90" arrival="203.90" arrivalLane="e0_0" arrivalPos="4800.00" arrivalSpeed="33.28" duration="156.40" routeLength="4944.62" waitingTime="0.00" waitingCount="0" stopTime="0.00" timeLoss="7.95" rerouteNo="0" devices="tripinfo_CVToC.15 routing_CVToC.15 ssm_CVToC.15 toc_CVToC.15 driverstateCVToC.15" vType="vehLVOS719" speedFactor="0.92" vaporized=""/>
    <tripinfo id="LV.12" depart="50.50" departLane="entry_1" departPos="22.94" departSpeed="33.74" departDelay="1.10" arrival="205.20" arrivalLane="e0_1" arrivalPos="4800.00" arrivalSpeed="33.73" duration="154.70" routeLength="4977.06" waitingTime="0.00" waitingCount="0" stopTime="0.00" timeLoss="7.17" rerouteNo="0" devices="tripinfo_LV.12 routing_LV.12 ssm_LV.12" vType="vehLVOS592" speedFactor="0.93" vaporized=""/>
    <tripinfo id="CVToC.17" depart="54.20" departLane="entry_1" departPos="37.09" departSpeed="32.29" departDelay="8.30" arrival="207.00" arrivalLane="e0_1" arrivalPos="4800.00" arrivalSpeed="37.15" duration="152.80" routeLength="4962.91" waitingTime="0.00" waitingCount="0" stopTime="0.00" timeLoss="19.36" rerouteNo="0" devices="tripinfo_CVToC.17 routing_CVToC.17 ssm_CVToC.17 toc_CVToC.17 driverstateCVToC.17" vType="vehLVOS168" speedFactor="1.03" vaporized=""/>
    <tripinfo id="LV.11" depart="51.40" departLane="entry_1" departPos="28.22" departSpeed="32.80" departDelay="6.80" arrival="208.60" arrivalLane="e0_0" arrivalPos="4800.00" arrivalSpeed="32.69" duration="157.20" routeLength="4971.78" waitingTime="0.00" waitingCount="0" stopTime="0.00" timeLoss="5.60" rerouteNo="0" devices="tripinfo_LV.11 routing_LV.11 ssm_LV.11" vType="vehLVOS731" speedFactor="0.91" vaporized=""/>
    <tripinfo id="LV.10" depart="44.00" departLane="entry_0" departPos="1.69" departSpeed="33.70" departDelay="6.60" arrival="210.80" arrivalLane="e0_1" arrivalPos="4800.00" arrivalSpeed="33.69" duration="166.80" routeLength="4998.31" waitingTime="0.00" waitingCount="0" stopTime="0.00" timeLoss="18.38" rerouteNo="0" devices="tripinfo_LV.10 routing_LV.10 ssm_LV.10" vType="vehLVOS523" speedFactor="0.93" vaporized=""/>
    <tripinfo id="CAVToC.15" depart="43.30" departLane="entry_1" departPos="2.32" departSpeed="30.33" departDelay="8.50" arrival="211.60" arrivalLane="e0_0" arrivalPos="4800.00" arrivalSpeed="30.30" duration="168.30" routeLength="4997.68" waitingTime="0.00" waitingCount="0" stopTime="0.00" timeLoss="3.50" rerouteNo="0" devices="tripinfo_CAVToC.15 routing_CAVToC.15 ssm_CAVToC.15 toc_CAVToC.15 driverstateCAVToC.15" vType="vehLVOS235" speedFactor="0.84" vaporized=""/>
    <tripinfo id="CVToC.11" depart="36.30" departLane="entry_0" departPos="14.79" departSpeed="30.77" departDelay="4.20" arrival="213.50" arrivalLane="e0_0" arrivalPos="4800.00" arrivalSpeed="33.07" duration="177.20" routeLength="4985.21" waitingTime="0.00" waitingCount="0" stopTime="0.00" timeLoss="43.57" rerouteNo="0" devices="tripinfo_CVToC.11 routing_CVToC.11 ssm_CVToC.11 toc_CVToC.11 driverstateCVToC.11" vType="vehLVOS842" speedFactor="1.03" vaporized=""/>
    <tripinfo id="CAVToC.14" depart="39.10" departLane="entry_0" departPos="15.81" departSpeed="30.07" departDelay="6.00" arrival="214.50" arrivalLane="e0_0" arrivalPos="4800.00" arrivalSpeed="33.58" duration="175.40" routeLength="4984.19" waitingTime="0.00" waitingCount="0" stopTime="0.00" timeLoss="43.61" rerouteNo="0" devices="tripinfo_CAVToC.14 routing_CAVToC.14 ssm_CAVToC.14 toc_CAVToC.14 driverstateCAVToC.14" vType="vehLVOS271" speedFactor="1.05" vaporized=""/>
    <tripinfo id="LV.13" depart="56.70" departLane="entry_1" departPos="46.10" departSpeed="32.36" departDelay="1.90" arrival="215.20" arrivalLane="e0_1" arrivalPos="4800.00" arrivalSpeed="32.33" duration="158.50" routeLength="4953.90" waitingTime="0.00" waitingCount="0" stopTime="0.00" timeLoss="5.37" rerouteNo="0" devices="tripinfo_LV.13 routing_LV.13 ssm_LV.13" vType="vehLVOS73" speedFactor="0.90" vaporized=""/>
    <tripinfo id="CAVToC.17" depart="41.10" departLane="entry_0" departPos="2.45" departSpeed="29.69" departDelay="2.90" arrival="215.70" arrivalLane="e0_0" arrivalPos="4800.00" arrivalSpeed="30.27" duration="174.60" routeLength="4997.55" waitingTime="0.00" waitingCount="0" stopTime="0.00" timeLoss="29.65" rerouteNo="0" devices="tripinfo_CAVToC.17 routing_CAVToC.17 ssm_CAVToC.17 toc_CAVToC.17 driverstateCAVToC.17" vType="vehLVOS13" speedFactor="0.96" vaporized=""/>
    <tripinfo id="CVToC.19" depart="58.30" departLane="entry_1" departPos="6.24" departSpeed="33.06" departDelay="4.10" arrival="219.40" arrivalLane="e0_1" arrivalPos="4800.00" arrivalSpeed="40.06" duration="161.10" routeLength="4993.76" waitingTime="0.00" waitingCount="0" stopTime="0.00" timeLoss="46.28" rerouteNo="0" devices="tripinfo_CVToC.19 routing_CVToC.19 ssm_CVToC.19 toc_CVToC.19 driverstateCVToC.19" vType="vehLVOS226" speedFactor="1.20" vaporized=""/>
    <tripinfo id="LV.14" depart="56.20" departLane="entry_1" departPos="93.03" departSpeed="30.21" departDelay="1.00" arrival="221.10" arrivalLane="e0_0" arrivalPos="4800.00" arrivalSpeed="30.20" duration="164.90" routeLength="4906.97" waitingTime="0.00" waitingCount="0" stopTime="0.00" timeLoss="2.41" rerouteNo="0" devices="tripinfo_LV.14 routing_LV.14 ssm_LV.14" vType="vehLVOS392" speedFactor="0.84" vaporized=""/>
    <tripinfo id="CAVToC.16" depart="46.30" departLane="entry_0" departPos="0.96" departSpeed="30.75" departDelay="8.20" arrival="222.20" arrivalLane="e0_0" arrivalPos="4800.00" arrivalSpeed="31.53" duration="175.90" routeLength="4999.04" waitingTime="0.00" waitingCount="0" stopTime="0.00" timeLoss="26.66" rerouteNo="0" devices="tripinfo_CAVToC.16 routing_CAVToC.16 ssm_CAVToC.16 toc_CAVToC.16 driverstateCAVToC.16" vType="vehLVOS961" speedFactor="0.93" vaporized=""/>
    <tripinfo id="CAVToC.20" depart="62.00" departLane="entry_1" departPos="58.22" departSpeed="31.76" departDelay="1.20" arrival="222.40" arrivalLane="e0_1" arrivalPos="4800.00" arrivalSpeed="32.15" duration="160.40" routeLength="4941.78" waitingTime="0.00" waitingCount="0" stopTime="0.00" timeLoss="7.05" rerouteNo="0" devices="tripinfo_CAVToC.20 routing_CAVToC.20 ssm_CAVToC.20 toc_CAVToC.20 driverstateCAVToC.20" vType="vehLVOS477" speedFactor="0.89" vaporized=""/>
    <tripinfo id="CVToC.16" depart="50.10" departLane="entry_0" departPos="29.04" departSpeed="31.02" departDelay="4.50" arrival="224.20" arrivalLane="e0_0" arrivalPos="4800.00" arrivalSpeed="33.99" duration="174.10" routeLength="4970.96" waitingTime="0.00" waitingCount="0" stopTime="0.00" timeLoss="49.42" rerouteNo="0" devices="tripinfo_CVToC.16 routing_CVToC.16 ssm_CVToC.16 toc_CVToC.16 driverstateCVToC.16" vType="vehLVOS240" speedFactor="1.10" vaporized=""/>
    <tripinfo id="CVToC.22" depart="63.50" departLane="entry_1" departPos="11.17" departSpeed="32.65" departDelay="5.70" arrival="224.20" arrivalLane="e0_1" arrivalPos="4800.00" arrivalSpeed="34.22" duration="160.70" routeLength="4988.83" waitingTime="0.00" waitingCount="0" stopTime="0.00" timeLoss="45.55" rerouteNo="0" devices="tripinfo_CVToC.22 routing_CVToC.22 ssm_CVToC.22 toc_CVToC.22 driverstateCVToC.22" vType="vehLVOS359" speedFactor="1.20" vaporized=""/>
    <tripinfo id="CAVToC.19" depart="66.20" departLane="entry_1" departPos="11.95" departSpeed="32.41" departDelay="9.10" arrival="225.00" arrivalLane="e0_1" arrivalPos="4800.00" arrivalSpeed="34.30" duration="158.80" routeLength="4988.05" waitingTime="0.00" waitingCount="0" stopTime="0.00" timeLoss="29.83" rerouteNo="0" devices="tripinfo_CAVToC.19 routing_CAVToC.19 ssm_CAVToC.19 toc_CAVToC.19 driverstateCAVToC.19" vType="vehLVOS999" speedFactor="1.07" vaporized=""/>
    <tripinfo id="CAVToC.18" depart="52.00" departLane="entry_0" departPos="7.31" departSpeed="31.30" departDelay="6.80" arrival="225.20" arrivalLane="e0_0" arrivalPos="4800.00" arrivalSpeed="34.63" duration="173.20" routeLength="4992.69" waitingTime="0.00" waitingCount="0" stopTime="0.00" timeLoss="37.11" rerouteNo="0" devices="tripinfo_CAVToC.18 routing_CAVToC.18 ssm_CAVToC.18 toc_CAVToC.18 driverstateCAVToC.18" vType="vehLVOS793" speedFactor="1.02" vaporized=""/>
    <tripinfo id="CVToC.18" depart="55.10" departLane="entry_0" departPos="22.38" departSpeed="31.17" departDelay="1.90" arrival="226.80" arrivalLane="e0_0" arrivalPos="4800.00" arrivalSpeed="36.49" duration="171.70" routeLength="4977.62" waitingTime="0.00" waitingCount="0" stopTime="0.00" timeLoss="42.41" rerouteNo="0" devices="tripinfo_CVToC.18 routing_CVToC.18 ssm_CVToC.18 toc_CVToC.18 driverstateCVToC.18" vType="vehLVOS102" speedFactor="1.07" vaporized=""/>
    <tripinfo id="CVToC.24" depart="70.80" departLane="entry_1" departPos="74.45" departSpeed="30.67" departDelay="9.00" arrival="227.10" arrivalLane="e0_1" arrivalPos="4800.00" arrivalSpeed="35.07" duration="156.30" routeLength="4925.55" waitingTime="0.00" waitingCount="0" stopTime="0.00" timeLoss="21.80" rerouteNo="0" devices="tripinfo_CVToC.24 routing_CVToC.24 ssm_CVToC.24 toc_CVToC.24 driverstateCVToC.24" vType="vehLVOS644" speedFactor="1.01" vaporized=""/>
    <tripinfo id="CVToC.20" depart="59.40" departLane="entry_0" departPos="64.82" departSpeed="27.60" departDelay="2.60" arrival="229.40" arrivalLane="e0_0" arrivalPos="4800.00" arrivalSpeed="36.40" duration="170.00" routeLength="4935.18" waitingTime="0.00" waitingCount="0" stopTime="0.00" timeLoss="34.57" rerouteNo="0" devices="tripinfo_CVToC.20 routing_CVToC.20 ssm_CVToC.20 toc_CVToC.20 driverstateCVToC.20" vType="vehLVOS975" speedFactor="1.01" vaporized=""/>
    <tripinfo id="CVToC.21" depart="61.80" departLane="entry_0" departPos="48.77" departSpeed="28.12" departDelay="4.90" arrival="230.30" arrivalLane="e0_0" arrivalPos="4800.00" arrivalSpeed="37.38" duration="168.50" routeLength="4951.23" waitingTime="0.00" waitingCount="0" stopTime="0.00" timeLoss="37.45" rerouteNo="0" devices="tripinfo_CVToC.21 routing_CVToC.21 ssm_CVToC.21 toc_CVToC.21 driverstateCVToC.21" vType="vehLVOS510" speedFactor="1.05" vaporized=""/>
    <tripinfo id="LV.4" depart="74.20" departLane="entry_1" departPos="2.71" departSpeed="33.74" departDelay="64.10" arrival="232.30" arrivalLane="e0_1" arrivalPos="4800.00" arrivalSpeed="33.58" duration="158.10" routeLength="4997.29" waitingTime="0.00" waitingCount="0" stopTime="0.00" timeLoss="9.91" rerouteNo="0" devices="tripinfo_LV.4 routing_LV.4 ssm_LV.4" vType="vehLVOS826" speedFactor="0.93" vaporized=""/>
    <tripinfo id="LV.9" depart="73.70" departLane="entry_0" departPos="34.15" departSpeed="37.38" departDelay="36.40" arrival="234.10" arrivalLane="e0_1" arrivalPos="4800.00" arrivalSpeed="36.25" duration="160.40" routeLength="4965.85" waitingTime="0.00" waitingCount="0" stopTime="0.00" timeLoss="27.54" rerouteNo="0" devices="tripinfo_LV.9 routing_LV.9 ssm_LV.9" vType="vehLVOS736" speedFactor="1.04" vaporized=""/>
    <tripinfo id="CVToC.23" depart="63.30" departLane="entry_0" departPos="3.11" departSpeed="29.08" departDelay="2.10" arrival="234.50" arrivalLane="e0_0" arrivalPos="4800.00" arrivalSpeed="36.61" duration="171.20" routeLength="4996.89" waitingTime="0.00" waitingCount="0" stopTime="0.00" timeLoss="47.13" rerouteNo="0" devices="tripinfo_CVToC.23 routing_CVToC.23 ssm_CVToC.23 toc_CVToC.23 driverstateCVToC.23" vType="vehLVOS789" speedFactor="1.12" vaporized=""/>
    <tripinfo id="CAVToC.24" depart="76.70" departLane="entry_1" departPos="14.51" departSpeed="31.68" departDelay="11.50" arrival="240.80" arrivalLane="e0_1" arrivalPos="4800.00" arrivalSpeed="31.57" duration="164.10" routeLength="4985.49" waitingTime="0.00" waitingCount="0" stopTime="0.00" timeLoss="6.68" rerouteNo="0" devices="tripinfo_CAVToC.24 routing_CAVToC.24 ssm_CAVToC.24 toc_CAVToC.24 driverstateCAVToC.24" vType="vehLVOS725" speedFactor="0.88" vaporized=""/>