<?xml version="1.0" encoding="UTF-8"?>

<!-- generated on 08/27/20 12:13:57 by Eclipse SUMO Version 1.6.0
<configuration xmlns:xsi="http://www.w3.org/2001/XMLSchema-instance" xsi:noNamespaceSchemaLocation="http://sumo.dlr.de/xsd/sumoConfiguration.xsd">

    <input>
        <net-file value="scenario/UC5_1.net.xml"/>
        <route-files value="scenario/routes_trafficMix_0_trafficDemand_1_driverBehaviour_OS_seed_0.xml"/>
        <additional-files value="scenario/additionalsOutput_trafficMix_0_trafficDemand_1_driverBehaviour_OS_seed_0.xml,scenario/vTypesCAVToC_OS.add.xml,scenario/vTypesCVToC_OS.add.xml,scenario/vTypesLV_OS.add.xml,scenario/shapes.add.xml,scenario/view.add.xml"/>
    </input>

    <output>
        <tripinfo-output value="C:\Users\laborknecht\Aris\workspace\tor-distribution/outputs/simulations/DQN__2020-08-26_20-57-26__20200827-113306/tripinfo_8.xml"/>
    </output>

    <time>
        <step-length value="0.1"/>
    </time>

    <processing>
        <step-method.ballistic value="true"/>
        <ignore-route-errors value="true"/>
        <lanechange.duration value="2.5"/>
    </processing>

    <report>
        <no-step-log value="true"/>
    </report>

    <toc_device>
        <device.toc.ogNewTimeHeadway value="100"/>
        <device.toc.ogNewSpaceHeadway value="5"/>
        <device.toc.ogMaxDecel value="1"/>
        <device.toc.ogChangeRate value="1"/>
    </toc_device>

    <traci_server>
        <remote-port value="56302"/>
    </traci_server>

    <random_number>
        <seed value="1032"/>
    </random_number>

    <gui_only>
        <tracker-interval value="0.1"/>
    </gui_only>

</configuration>
-->

<tripinfos xmlns:xsi="http://www.w3.org/2001/XMLSchema-instance" xsi:noNamespaceSchemaLocation="http://sumo.dlr.de/xsd/tripinfo_file.xsd">
    <tripinfo id="LV.0" depart="2.40" departLane="entry_1" departPos="126.61" departSpeed="41.64" departDelay="0.00" arrival="120.90" arrivalLane="e0_0" arrivalPos="4800.00" arrivalSpeed="41.63" duration="118.50" routeLength="4873.39" waitingTime="0.00" waitingCount="0" stopTime="0.00" timeLoss="1.40" rerouteNo="0" devices="tripinfo_LV.0 routing_LV.0 ssm_LV.0" vType="vehLVOS594" speedFactor="1.15" vaporized=""/>
    <tripinfo id="CAVToC.1" depart="1.90" departLane="entry_1" departPos="199.90" departSpeed="39.24" departDelay="0.00" arrival="124.50" arrivalLane="e0_1" arrivalPos="4800.00" arrivalSpeed="39.22" duration="122.60" routeLength="4800.10" waitingTime="0.00" waitingCount="0" stopTime="0.00" timeLoss="0.22" rerouteNo="0" devices="tripinfo_CAVToC.1 routing_CAVToC.1 ssm_CAVToC.1 toc_CAVToC.1 driverstateCAVToC.1" vType="vehLVOS570" speedFactor="1.09" vaporized=""/>
    <tripinfo id="CVToC.1" depart="4.00" departLane="entry_1" departPos="111.63" departSpeed="36.44" departDelay="0.00" arrival="131.00" arrivalLane="e0_1" arrivalPos="4800.00" arrivalSpeed="38.60" duration="127.00" routeLength="4888.37" waitingTime="0.00" waitingCount="0" stopTime="0.00" timeLoss="0.54" rerouteNo="0" devices="tripinfo_CVToC.1 routing_CVToC.1 ssm_CVToC.1 toc_CVToC.1 driverstateCVToC.1" vType="vehLVOS974" speedFactor="1.07" vaporized=""/>
    <tripinfo id="CAVToC.0" depart="0.10" departLane="entry_0" departPos="199.90" departSpeed="36.04" departDelay="0.00" arrival="133.40" arrivalLane="e0_0" arrivalPos="4800.00" arrivalSpeed="36.03" duration="133.30" routeLength="4800.10" waitingTime="0.00" waitingCount="0" stopTime="0.00" timeLoss="0.02" rerouteNo="0" devices="tripinfo_CAVToC.0 routing_CAVToC.0 ssm_CAVToC.0 toc_CAVToC.0 driverstateCAVToC.0" vType="vehLVOS610" speedFactor="1.00" vaporized=""/>
    <tripinfo id="CVToC.0" depart="1.80" departLane="entry_0" departPos="182.87" departSpeed="36.26" departDelay="0.00" arrival="134.50" arrivalLane="e0_1" arrivalPos="4800.00" arrivalSpeed="37.16" duration="132.70" routeLength="4817.13" waitingTime="0.00" waitingCount="0" stopTime="0.00" timeLoss="3.20" rerouteNo="0" devices="tripinfo_CVToC.0 routing_CVToC.0 ssm_CVToC.0 toc_CVToC.0 driverstateCVToC.0" vType="vehLVOS323" speedFactor="1.03" vaporized=""/>
    <tripinfo id="LV.1" depart="2.90" departLane="entry_0" departPos="197.62" departSpeed="35.57" departDelay="0.00" arrival="138.10" arrivalLane="e0_0" arrivalPos="4800.00" arrivalSpeed="35.53" duration="135.20" routeLength="4802.38" waitingTime="0.00" waitingCount="0" stopTime="0.00" timeLoss="0.18" rerouteNo="0" devices="tripinfo_LV.1 routing_LV.1 ssm_LV.1" vType="vehLVOS125" speedFactor="0.99" vaporized=""/>
    <tripinfo id="CAVToC.4" depart="6.80" departLane="entry_1" departPos="136.76" departSpeed="37.32" departDelay="0.00" arrival="138.40" arrivalLane="e0_1" arrivalPos="4800.00" arrivalSpeed="37.25" duration="131.60" routeLength="4863.24" waitingTime="0.00" waitingCount="0" stopTime="0.00" timeLoss="1.25" rerouteNo="0" devices="tripinfo_CAVToC.4 routing_CAVToC.4 ssm_CAVToC.4 toc_CAVToC.4 driverstateCAVToC.4" vType="vehLVOS598" speedFactor="1.03" vaporized=""/>
    <tripinfo id="CAVToC.2" depart="3.20" departLane="entry_0" departPos="121.08" departSpeed="36.18" departDelay="0.00" arrival="139.90" arrivalLane="e0_0" arrivalPos="4800.00" arrivalSpeed="35.57" duration="136.70" routeLength="4878.92" waitingTime="0.00" waitingCount="0" stopTime="0.00" timeLoss="20.17" rerouteNo="0" devices="tripinfo_CAVToC.2 routing_CAVToC.2 ssm_CAVToC.2 toc_CAVToC.2 driverstateCAVToC.2" vType="vehLVOS439" speedFactor="1.16" vaporized=""/>
    <tripinfo id="LV.2" depart="8.30" departLane="entry_1" departPos="70.18" departSpeed="39.63" departDelay="0.10" arrival="140.10" arrivalLane="e0_1" arrivalPos="4800.00" arrivalSpeed="39.62" duration="131.80" routeLength="4929.82" waitingTime="0.00" waitingCount="0" stopTime="0.00" timeLoss="7.32" rerouteNo="0" devices="tripinfo_LV.2 routing_LV.2 ssm_LV.2" vType="vehLVOS984" speedFactor="1.10" vaporized=""/>
    <tripinfo id="CVToC.3" depart="10.00" departLane="entry_1" departPos="60.92" departSpeed="35.46" departDelay="0.00" arrival="149.60" arrivalLane="e0_1" arrivalPos="4800.00" arrivalSpeed="35.37" duration="139.60" routeLength="4939.08" waitingTime="0.00" waitingCount="0" stopTime="0.00" timeLoss="0.27" rerouteNo="0" devices="tripinfo_CVToC.3 routing_CVToC.3 ssm_CVToC.3 toc_CVToC.3 driverstateCVToC.3" vType="vehLVOS15" speedFactor="0.98" vaporized=""/>
    <tripinfo id="CAVToC.3" depart="4.20" departLane="entry_0" departPos="85.67" departSpeed="33.73" departDelay="0.00" arrival="152.60" arrivalLane="e0_0" arrivalPos="4800.00" arrivalSpeed="33.65" duration="148.40" routeLength="4914.33" waitingTime="0.00" waitingCount="0" stopTime="0.00" timeLoss="2.61" rerouteNo="0" devices="tripinfo_CAVToC.3 routing_CAVToC.3 ssm_CAVToC.3 toc_CAVToC.3 driverstateCAVToC.3" vType="vehLVOS768" speedFactor="0.93" vaporized=""/>
    <tripinfo id="LV.3" depart="11.10" departLane="entry_0" departPos="14.10" departSpeed="35.84" departDelay="0.70" arrival="154.90" arrivalLane="e0_1" arrivalPos="4800.00" arrivalSpeed="35.84" duration="143.80" routeLength="4985.90" waitingTime="0.00" waitingCount="0" stopTime="0.00" timeLoss="4.61" rerouteNo="0" devices="tripinfo_LV.3 routing_LV.3 ssm_LV.3" vType="vehLVOS369" speedFactor="0.99" vaporized=""/>
    <tripinfo id="CVToC.4" depart="13.20" departLane="entry_1" departPos="11.74" departSpeed="32.87" departDelay="1.30" arrival="156.00" arrivalLane="e0_1" arrivalPos="4800.00" arrivalSpeed="37.68" duration="142.80" routeLength="4988.26" waitingTime="0.00" waitingCount="0" stopTime="0.00" timeLoss="12.78" rerouteNo="0" devices="tripinfo_CVToC.4 routing_CVToC.4 ssm_CVToC.4 toc_CVToC.4 driverstateCVToC.4" vType="vehLVOS690" speedFactor="1.06" vaporized=""/>
    <tripinfo id="CAVToC.7" depart="14.70" departLane="entry_0" departPos="43.38" departSpeed="33.15" departDelay="0.10" arrival="156.90" arrivalLane="e0_1" arrivalPos="4800.00" arrivalSpeed="38.58" duration="142.20" routeLength="4956.62" waitingTime="0.00" waitingCount="0" stopTime="0.00" timeLoss="21.36" rerouteNo="0" devices="tripinfo_CAVToC.7 routing_CAVToC.7 ssm_CAVToC.7 toc_CAVToC.7 driverstateCAVToC.7" vType="vehLVOS851" speedFactor="1.14" vaporized=""/>
    <tripinfo id="CVToC.2" depart="7.90" departLane="entry_0" departPos="59.83" departSpeed="32.79" departDelay="0.00" arrival="158.20" arrivalLane="e0_1" arrivalPos="4800.00" arrivalSpeed="36.92" duration="150.30" routeLength="4940.17" waitingTime="0.00" waitingCount="0" stopTime="0.00" timeLoss="16.48" rerouteNo="0" devices="tripinfo_CVToC.2 routing_CVToC.2 ssm_CVToC.2 toc_CVToC.2 driverstateCVToC.2" vType="vehLVOS536" speedFactor="1.02" vaporized=""/>
    <tripinfo id="CAVToC.5" depart="6.90" departLane="entry_0" departPos="107.96" departSpeed="32.20" departDelay="0.00" arrival="160.50" arrivalLane="e0_0" arrivalPos="4800.00" arrivalSpeed="32.19" duration="153.60" routeLength="4892.04" waitingTime="0.00" waitingCount="0" stopTime="0.00" timeLoss="1.61" rerouteNo="0" devices="tripinfo_CAVToC.5 routing_CAVToC.5 ssm_CAVToC.5 toc_CAVToC.5 driverstateCAVToC.5" vType="vehLVOS174" speedFactor="0.89" vaporized=""/>
    <tripinfo id="CAVToC.6" depart="10.30" departLane="entry_1" departPos="2.12" departSpeed="32.13" departDelay="0.10" arrival="166.90" arrivalLane="e0_0" arrivalPos="4800.00" arrivalSpeed="32.10" duration="156.60" routeLength="4997.88" waitingTime="0.00" waitingCount="0" stopTime="0.00" timeLoss="1.05" rerouteNo="0" devices="tripinfo_CAVToC.6 routing_CAVToC.6 ssm_CAVToC.6 toc_CAVToC.6 driverstateCAVToC.6" vType="vehLVOS2" speedFactor="0.89" vaporized=""/>
    <tripinfo id="CVToC.6" depart="15.50" departLane="entry_1" departPos="25.95" departSpeed="29.55" departDelay="0.20" arrival="184.50" arrivalLane="e0_1" arrivalPos="4800.00" arrivalSpeed="29.52" duration="169.00" routeLength="4974.05" waitingTime="0.00" waitingCount="0" stopTime="0.00" timeLoss="0.61" rerouteNo="0" devices="tripinfo_CVToC.6 routing_CVToC.6 ssm_CVToC.6 toc_CVToC.6 driverstateCVToC.6" vType="vehLVOS198" speedFactor="0.82" vaporized=""/>
    <tripinfo id="CAVToC.8" depart="16.20" departLane="entry_0" departPos="7.27" departSpeed="33.41" departDelay="0.70" arrival="186.70" arrivalLane="e0_0" arrivalPos="4800.00" arrivalSpeed="31.47" duration="170.50" routeLength="4992.73" waitingTime="0.00" waitingCount="0" stopTime="0.00" timeLoss="39.92" rerouteNo="0" devices="tripinfo_CAVToC.8 routing_CAVToC.8 ssm_CAVToC.8 toc_CAVToC.8 driverstateCAVToC.8" vType="vehLVOS757" speedFactor="1.06" vaporized=""/>
    <tripinfo id="CAVToC.9" depart="17.60" departLane="entry_1" departPos="0.43" departSpeed="30.69" departDelay="1.20" arrival="187.00" arrivalLane="e0_1" arrivalPos="4800.00" arrivalSpeed="32.36" duration="169.40" routeLength="4999.57" waitingTime="0.00" waitingCount="0" stopTime="0.00" timeLoss="43.77" rerouteNo="0" devices="tripinfo_CAVToC.9 routing_CAVToC.9 ssm_CAVToC.9 toc_CAVToC.9 driverstateCAVToC.9" vType="vehLVOS668" speedFactor="1.10" vaporized=""/>
    <tripinfo id="CVToC.9" depart="20.40" departLane="entry_1" departPos="3.61" departSpeed="31.33" departDelay="1.70" arrival="188.60" arrivalLane="e0_1" arrivalPos="4800.00" arrivalSpeed="34.22" duration="168.20" routeLength="4996.39" waitingTime="0.00" waitingCount="0" stopTime="0.00" timeLoss="34.51" rerouteNo="0" devices="tripinfo_CVToC.9 routing_CVToC.9 ssm_CVToC.9 toc_CVToC.9 driverstateCVToC.9" vType="vehLVOS642" speedFactor="1.04" vaporized=""/>
    <tripinfo id="CVToC.7" depart="19.10" departLane="entry_0" departPos="4.63" departSpeed="28.15" departDelay="2.50" arrival="189.00" arrivalLane="e0_0" arrivalPos="4800.00" arrivalSpeed="34.86" duration="169.90" routeLength="4995.37" waitingTime="0.00" waitingCount="0" stopTime="0.00" timeLoss="41.55" rerouteNo="0" devices="tripinfo_CVToC.7 routing_CVToC.7 ssm_CVToC.7 toc_CVToC.7 driverstateCVToC.7" vType="vehLVOS83" speedFactor="1.08" vaporized=""/>
    <tripinfo id="CAVToC.10" depart="23.30" departLane="entry_1" departPos="22.55" departSpeed="31.36" departDelay="4.10" arrival="190.20" arrivalLane="e0_1" arrivalPos="4800.00" arrivalSpeed="32.64" duration="166.90" routeLength="4977.45" waitingTime="0.00" waitingCount="0" stopTime="0.00" timeLoss="14.45" rerouteNo="0" devices="tripinfo_CAVToC.10 routing_CAVToC.10 ssm_CAVToC.10 toc_CAVToC.10 driverstateCAVToC.10" vType="vehLVOS546" speedFactor="0.90" vaporized=""/>
    <tripinfo id="CVToC.12" depart="22.00" departLane="entry_0" departPos="0.43" departSpeed="29.08" departDelay="1.00" arrival="190.70" arrivalLane="e0_0" arrivalPos="4800.00" arrivalSpeed="33.70" duration="168.70" routeLength="4999.57" waitingTime="0.00" waitingCount="0" stopTime="0.00" timeLoss="36.67" rerouteNo="0" devices="tripinfo_CVToC.12 routing_CVToC.12 ssm_CVToC.12 toc_CVToC.12 driverstateCVToC.12" vType="vehLVOS848" speedFactor="1.05" vaporized=""/>
    <tripinfo id="CVToC.11" depart="24.80" departLane="entry_0" departPos="0.85" departSpeed="29.67" departDelay="3.90" arrival="192.30" arrivalLane="e0_0" arrivalPos="4800.00" arrivalSpeed="36.15" duration="167.50" routeLength="4999.15" waitingTime="0.00" waitingCount="0" stopTime="0.00" timeLoss="29.23" rerouteNo="0" devices="tripinfo_CVToC.11 routing_CVToC.11 ssm_CVToC.11 toc_CVToC.11 driverstateCVToC.11" vType="vehLVOS108" speedFactor="1.00" vaporized=""/>
    <tripinfo id="CVToC.5" depart="25.60" departLane="entry_1" departPos="2.40" departSpeed="32.38" departDelay="11.00" arrival="193.40" arrivalLane="e0_1" arrivalPos="4800.00" arrivalSpeed="38.92" duration="167.80" routeLength="4997.60" waitingTime="0.00" waitingCount="0" stopTime="0.00" timeLoss="49.02" rerouteNo="0" devices="tripinfo_CVToC.5 routing_CVToC.5 ssm_CVToC.5 toc_CVToC.5 driverstateCVToC.5" vType="vehLVOS265" speedFactor="1.17" vaporized=""/>
    <tripinfo id="CVToC.13" depart="27.90" departLane="entry_1" departPos="4.01" departSpeed="32.38" departDelay="4.20" arrival="194.50" arrivalLane="e0_1" arrivalPos="4800.00" arrivalSpeed="33.74" duration="166.60" routeLength="4995.99" waitingTime="0.00" waitingCount="0" stopTime="0.00" timeLoss="18.72" rerouteNo="0" devices="tripinfo_CVToC.13 routing_CVToC.13 ssm_CVToC.13 toc_CVToC.13 driverstateCVToC.13" vType="vehLVOS234" speedFactor="0.94" vaporized=""/>
    <tripinfo id="CVToC.14" depart="27.60" departLane="entry_0" departPos="0.42" departSpeed="30.22" departDelay="2.60" arrival="195.00" arrivalLane="e0_0" arrivalPos="4800.00" arrivalSpeed="34.56" duration="167.40" routeLength="4999.58" waitingTime="0.00" waitingCount="0" stopTime="0.00" timeLoss="37.04" rerouteNo="0" devices="tripinfo_CVToC.14 routing_CVToC.14 ssm_CVToC.14 toc_CVToC.14 driverstateCVToC.14" vType="vehLVOS8" speedFactor="1.06" vaporized=""/>
    <tripinfo id="CAVToC.11" depart="29.90" departLane="entry_1" departPos="1.28" departSpeed="31.69" departDelay="4.50" arrival="197.30" arrivalLane="e0_1" arrivalPos="4800.00" arrivalSpeed="31.68" duration="167.40" routeLength="4998.72" waitingTime="0.00" waitingCount="0" stopTime="0.00" timeLoss="9.56" rerouteNo="0" devices="tripinfo_CAVToC.11 routing_CAVToC.11 ssm_CAVToC.11 toc_CAVToC.11 driverstateCAVToC.11" vType="vehLVOS298" speedFactor="0.88" vaporized=""/>
    <tripinfo id="CVToC.15" depart="32.70" departLane="entry_1" departPos="14.50" departSpeed="32.22" departDelay="6.30" arrival="198.80" arrivalLane="e0_1" arrivalPos="4800.00" arrivalSpeed="33.56" duration="166.10" routeLength="4985.50" waitingTime="0.00" waitingCount="0" stopTime="0.00" timeLoss="27.69" rerouteNo="0" devices="tripinfo_CVToC.15 routing_CVToC.15 ssm_CVToC.15 toc_CVToC.15 driverstateCVToC.15" vType="vehLVOS895" speedFactor="1.00" vaporized=""/>
    <tripinfo id="CAVToC.12" depart="30.00" departLane="entry_0" departPos="8.29" departSpeed="30.31" departDelay="3.50" arrival="199.40" arrivalLane="e0_0" arrivalPos="4800.00" arrivalSpeed="31.20" duration="169.40" routeLength="4991.71" waitingTime="0.00" waitingCount="0" stopTime="0.00" timeLoss="9.57" rerouteNo="0" devices="tripinfo_CAVToC.12 routing_CAVToC.12 ssm_CAVToC.12 toc_CAVToC.12 driverstateCAVToC.12" vType="vehLVOS421" speedFactor="0.87" vaporized=""/>
    <tripinfo id="CAVToC.13" depart="34.50" departLane="entry_1" departPos="1.95" departSpeed="32.35" departDelay="5.30" arrival="199.80" arrivalLane="e0_1" arrivalPos="4800.00" arrivalSpeed="33.37" duration="165.30" routeLength="4998.05" waitingTime="0.00" waitingCount="0" stopTime="0.00" timeLoss="15.56" rerouteNo="0" devices="tripinfo_CAVToC.13 routing_CAVToC.13 ssm_CAVToC.13 toc_CAVToC.13 driverstateCAVToC.13" vType="vehLVOS245" speedFactor="0.92" vaporized=""/>
    <tripinfo id="CVToC.19" depart="36.90" departLane="entry_1" departPos="7.98" departSpeed="32.48" departDelay="1.10" arrival="200.70" arrivalLane="e0_1" arrivalPos="4800.00" arrivalSpeed="34.00" duration="163.80" routeLength="4992.02" waitingTime="0.00" waitingCount="0" stopTime="0.00" timeLoss="17.00" rerouteNo="0" devices="tripinfo_CVToC.19 routing_CVToC.19 ssm_CVToC.19 toc_CVToC.19 driverstateCVToC.19" vType="vehLVOS507" speedFactor="0.94" vaporized=""/>
    <tripinfo id="CVToC.18" depart="39.40" departLane="entry_1" departPos="11.85" departSpeed="32.85" departDelay="5.60" arrival="201.60" arrivalLane="e0_1" arrivalPos="4800.00" arrivalSpeed="34.80" duration="162.20" routeLength="4988.15" waitingTime="0.00" waitingCount="0" stopTime="0.00" timeLoss="27.85" rerouteNo="0" devices="tripinfo_CVToC.18 routing_CVToC.18 ssm_CVToC.18 toc_CVToC.18 driverstateCVToC.18" vType="vehLVOS391" speedFactor="1.03" vaporized=""/>
    <tripinfo id="CAVToC.15" depart="41.80" departLane="entry_1" departPos="12.40" departSpeed="33.21" departDelay="4.00" arrival="204.30" arrivalLane="e0_0" arrivalPos="4800.00" arrivalSpeed="37.90" duration="162.50" routeLength="4987.60" waitingTime="0.00" waitingCount="0" stopTime="0.00" timeLoss="31.09" rerouteNo="0" devices="tripinfo_CAVToC.15 routing_CAVToC.15 ssm_CAVToC.15 toc_CAVToC.15 driverstateCAVToC.15" vType="vehLVOS933" speedFactor="1.05" vaporized=""/>
    <tripinfo id="CVToC.16" depart="44.30" departLane="entry_1" departPos="2.48" departSpeed="33.89" departDelay="15.90" arrival="205.60" arrivalLane="e0_1" arrivalPos="4800.00" arrivalSpeed="40.88" duration="161.30" routeLength="4997.52" waitingTime="0.00" waitingCount="0" stopTime="0.00" timeLoss="41.23" rerouteNo="0" devices="tripinfo_CVToC.16 routing_CVToC.16 ssm_CVToC.16 toc_CVToC.16 driverstateCVToC.16" vType="vehLVOS203" speedFactor="1.15" vaporized=""/>
    <tripinfo id="CAVToC.16" depart="46.80" departLane="entry_1" departPos="15.80" departSpeed="33.27" departDelay="3.10" arrival="207.40" arrivalLane="e0_1" arrivalPos="4800.00" arrivalSpeed="33.23" duration="160.60" routeLength="4984.20" waitingTime="0.00" waitingCount="0" stopTime="0.00" timeLoss="10.76" rerouteNo="0" devices="tripinfo_CAVToC.16 routing_CAVToC.16 ssm_CAVToC.16 toc_CAVToC.16 driverstateCAVToC.16" vType="vehLVOS684" speedFactor="0.92" vaporized=""/>
    <tripinfo id="CVToC.8" depart="49.30" departLane="entry_1" departPos="3.02" departSpeed="34.56" departDelay="32.30" arrival="208.70" arrivalLane="e0_1" arrivalPos="4800.00" arrivalSpeed="34.69" duration="159.40" routeLength="4996.98" waitingTime="0.00" waitingCount="0" stopTime="0.00" timeLoss="50.18" rerouteNo="0" devices="tripinfo_CVToC.8 routing_CVToC.8 ssm_CVToC.8 toc_CVToC.8 driverstateCVToC.8" vType="vehLVOS15" speedFactor="1.27" vaporized=""/>
    <tripinfo id="LV.4" depart="32.20" departLane="entry_0" departPos="62.38" departSpeed="28.22" departDelay="3.80" arrival="210.00" arrivalLane="e0_0" arrivalPos="4800.00" arrivalSpeed="28.19" duration="177.80" routeLength="4937.62" waitingTime="0.00" waitingCount="0" stopTime="0.00" timeLoss="2.80" rerouteNo="0" devices="tripinfo_LV.4 routing_LV.4 ssm_LV.4" vType="vehLVOS592" speedFactor="0.78" vaporized=""/>
    <tripinfo id="CVToC.10" depart="33.30" departLane="entry_0" departPos="2.85" departSpeed="29.53" departDelay="13.70" arrival="211.20" arrivalLane="e0_0" arrivalPos="4800.00" arrivalSpeed="31.21" duration="177.90" routeLength="4997.15" waitingTime="0.00" waitingCount="0" stopTime="0.00" timeLoss="52.05" rerouteNo="0" devices="tripinfo_CVToC.10 routing_CVToC.10 ssm_CVToC.10 toc_CVToC.10 driverstateCVToC.10" vType="vehLVOS822" speedFactor="1.10" vaporized=""/>
    <tripinfo id="CVToC.17" depart="35.70" departLane="entry_0" departPos="2.50" departSpeed="29.62" departDelay="4.60" arrival="213.10" arrivalLane="e0_0" arrivalPos="4800.00" arrivalSpeed="31.67" duration="177.40" routeLength="4997.50" waitingTime="0.00" waitingCount="0" stopTime="0.00" timeLoss="20.05" rerouteNo="0" devices="tripinfo_CVToC.17 routing_CVToC.17 ssm_CVToC.17 toc_CVToC.17 driverstateCVToC.17" vType="vehLVOS879" speedFactor="0.88" vaporized=""/>
    <tripinfo id="CVToC.25" depart="52.30" departLane="entry_1" departPos="36.50" departSpeed="33.64" departDelay="5.80" arrival="213.30" arrivalLane="e0_1" arrivalPos="4800.00" arrivalSpeed="33.57" duration="161.00" routeLength="4963.50" waitingTime="0.00" waitingCount="0" stopTime="0.00" timeLoss="13.40" rerouteNo="0" devices="tripinfo_CVToC.25 routing_CVToC.25 ssm_CVToC.25 toc_CVToC.25 driverstateCVToC.25" vType="vehLVOS574" speedFactor="0.93" vaporized=""/>
    <tripinfo id="LV.7" depart="52.90" departLane="entry_1" departPos="15.60" departSpeed="32.28" departDelay="1.90" arrival="215.30" arrivalLane="e0_1" arrivalPos="4800.00" arrivalSpeed="32.24" duration="162.40" routeLength="4984.40" waitingTime="0.00" waitingCount="0" stopTime="0.00" timeLoss="7.89" rerouteNo="0" devices="tripinfo_LV.7 routing_LV.7 ssm_LV.7" vType="vehLVOS782" speedFactor="0.89" vaporized=""/>
    <tripinfo id="CAVToC.14" depart="38.70" departLane="entry_0" departPos="8.08" departSpeed="30.32" departDelay="5.50" arrival="215.80" arrivalLane="e0_0" arrivalPos="4800.00" arrivalSpeed="33.35" duration="177.10" routeLength="4991.92" waitingTime="0.00" waitingCount="0" stopTime="0.00" timeLoss="41.33" rerouteNo="0" devices="tripinfo_CAVToC.14 routing_CAVToC.14 ssm_CAVToC.14 toc_CAVToC.14 driverstateCAVToC.14" vType="vehLVOS120" speedFactor="1.02" vaporized=""/>
    <tripinfo id="CVToC.26" depart="55.30" departLane="entry_1" departPos="1.65" departSpeed="33.20" departDelay="7.60" arrival="216.20" arrivalLane="e0_1" arrivalPos="4800.00" arrivalSpeed="33.71" duration="160.90" routeLength="4998.35" waitingTime="0.00" waitingCount="0" stopTime="0.00" timeLoss="44.73" rerouteNo="0" devices="tripinfo_CVToC.26 routing_CVToC.26 ssm_CVToC.26 toc_CVToC.26 driverstateCVToC.26" vType="vehLVOS478" speedFactor="1.19" vaporized=""/>
    <tripinfo id="CVToC.20" depart="41.30" departLane="entry_0" departPos="9.72" departSpeed="29.67" departDelay="3.70" arrival="218.10" arrivalLane="e0_0" arrivalPos="4800.00" arrivalSpeed="35.84" duration="176.80" routeLength="4990.28" waitingTime="0.00" waitingCount="0" stopTime="0.00" timeLoss="37.59" rerouteNo="0" devices="tripinfo_CVToC.20 routing_CVToC.20 ssm_CVToC.20 toc_CVToC.20 driverstateCVToC.20" vType="vehLVOS875" speedFactor="0.99" vaporized=""/>
    <tripinfo id="CVToC.27" depart="57.90" departLane="entry_1" departPos="5.23" departSpeed="33.96" departDelay="3.80" arrival="218.10" arrivalLane="e0_1" arrivalPos="4800.00" arrivalSpeed="36.62" duration="160.20" routeLength="4994.77" waitingTime="0.00" waitingCount="0" stopTime="0.00" timeLoss="35.58" rerouteNo="0" devices="tripinfo_CVToC.27 routing_CVToC.27 ssm_CVToC.27 toc_CVToC.27 driverstateCVToC.27" vType="vehLVOS663" speedFactor="1.11" vaporized=""/>
    <tripinfo id="CVToC.21" depart="43.70" departLane="entry_0" departPos="4.86" departSpeed="30.79" departDelay="4.60" arrival="219.80" arrivalLane="e0_0" arrivalPos="4800.00" arrivalSpeed="35.66" duration="176.10" routeLength="4995.14" waitingTime="0.00" waitingCount="0" stopTime="0.00" timeLoss="35.97" rerouteNo="0" devices="tripinfo_CVToC.21 routing_CVToC.21 ssm_CVToC.21 toc_CVToC.21 driverstateCVToC.21" vType="vehLVOS680" speedFactor="0.99" vaporized=""/>
    <tripinfo id="LV.5" depart="60.70" departLane="entry_1" departPos="5.37" departSpeed="38.10" departDelay="16.30" arrival="220.40" arrivalLane="e0_1" arrivalPos="4800.00" arrivalSpeed="38.09" duration="159.70" routeLength="4994.63" waitingTime="0.00" waitingCount="0" stopTime="0.00" timeLoss="28.51" rerouteNo="0" devices="tripinfo_LV.5 routing_LV.5 ssm_LV.5" vType="vehLVOS890" speedFactor="1.06" vaporized=""/>
    <tripinfo id="LV.8" depart="62.50" departLane="entry_1" departPos="5.44" departSpeed="40.22" departDelay="8.40" arrival="221.40" arrivalLane="e0_1" arrivalPos="4800.00" arrivalSpeed="38.74" duration="158.90" routeLength="4994.56" waitingTime="0.00" waitingCount="0" stopTime="0.00" timeLoss="34.73" rerouteNo="0" devices="tripinfo_LV.8 routing_LV.8 ssm_LV.8" vType="vehLVOS981" speedFactor="1.11" vaporized=""/>
    <tripinfo id="CVToC.22" depart="46.40" departLane="entry_0" departPos="1.97" departSpeed="31.78" departDelay="4.00" arrival="222.20" arrivalLane="e0_0" arrivalPos="4800.00" arrivalSpeed="39.14" duration="175.80" routeLength="4998.03" waitingTime="0.00" waitingCount="0" stopTime="0.00" timeLoss="48.11" rerouteNo="0" devices="tripinfo_CVToC.22 routing_CVToC.22 ssm_CVToC.22 toc_CVToC.22 driverstateCVToC.22" vType="vehLVOS172" speedFactor="1.08" vaporized=""/>
    <tripinfo id="LV.9" depart="63.60" departLane="entry_1" departPos="9.25" departSpeed="38.35" departDelay="5.80" arrival="223.00" arrivalLane="e0_1" arrivalPos="4800.00" arrivalSpeed="38.20" duration="159.40" routeLength="4990.75" waitingTime="0.00" waitingCount="0" stopTime="0.00" timeLoss="29.20" rerouteNo="0" devices="tripinfo_LV.9 routing_LV.9 ssm_LV.9" vType="vehLVOS573" speedFactor="1.06" vaporized=""/>
    <tripinfo id="CVToC.23" depart="49.30" departLane="entry_0" departPos="7.03" departSpeed="32.53" departDelay="5.10" arrival="223.50" arrivalLane="e0_0" arrivalPos="4800.00" arrivalSpeed="37.35" duration="174.20" routeLength="4992.97" waitingTime="0.00" waitingCount="0" stopTime="0.00" timeLoss="50.39" rerouteNo="0" devices="tripinfo_CVToC.23 routing_CVToC.23 ssm_CVToC.23 toc_CVToC.23 driverstateCVToC.23" vType="vehLVOS975" speedFactor="1.12" vaporized=""/>
    <tripinfo id="LV.11" depart="65.80" departLane="entry_1" departPos="28.55" departSpeed="40.49" departDelay="4.50" arrival="223.80" arrivalLane="e0_1" arrivalPos="4800.00" arrivalSpeed="38.73" duration="158.00" routeLength="4971.45" waitingTime="0.00" waitingCount="0" stopTime="0.00" timeLoss="35.14" rerouteNo="0" devices="tripinfo_LV.11 routing_LV.11 ssm_LV.11" vType="vehLVOS514" speedFactor="1.12" vaporized=""/>
    <tripinfo id="CAVToC.23" depart="67.30" departLane="entry_1" departPos="8.79" departSpeed="36.39" departDelay="6.10" arrival="225.70" arrivalLane="e0_0" arrivalPos="4800.00" arrivalSpeed="38.21" duration="158.40" routeLength="4991.21" waitingTime="0.00" waitingCount="0" stopTime="0.00" timeLoss="27.81" rerouteNo="0" devices="tripinfo_CAVToC.23 routing_CAVToC.23 ssm_CAVToC.23 toc_CAVToC.23 driverstateCAVToC.23" vType="vehLVOS951" speedFactor="1.06" vaporized=""/>
    <tripinfo id="CAVToC.22" depart="69.50" departLane="entry_1" departPos="13.03" departSpeed="35.82" departDelay="9.20" arrival="228.40" arrivalLane="e0_1" arrivalPos="4800.00" arrivalSpeed="35.65" duration="158.90" routeLength="4986.97" waitingTime="0.00" waitingCount="0" stopTime="0.00" timeLoss="19.59" rerouteNo="0" devices="tripinfo_CAVToC.22 routing_CAVToC.22 ssm_CAVToC.22 toc_CAVToC.22 driverstateCAVToC.22" vType="vehLVOS816" speedFactor="0.99" vaporized=""/>
    <tripinfo id="CAVToC.20" depart="60.90" departLane="entry_0" departPos="21.18" departSpeed="31.61" departDelay="4.00" arrival="229.50" arrivalLane="e0_1" arrivalPos="4800.00" arrivalSpeed="36.02" duration="168.60" routeLength="4978.82" waitingTime="0.00" waitingCount="0" stopTime="0.00" timeLoss="30.36" rerouteNo="0" devices="tripinfo_CAVToC.20 routing_CAVToC.20 ssm_CAVToC.20 toc_CAVToC.20 driverstateCAVToC.20" vType="vehLVOS163" speedFactor="1.00" vaporized=""/>
    <tripinfo id="CAVToC.17" depart="51.40" departLane="entry_0" departPos="11.79" departSpeed="28.57" departDelay="0.10" arrival="230.90" arrivalLane="e0_0" arrivalPos="4800.00" arrivalSpeed="28.39" duration="179.50" routeLength="4988.21" waitingTime="0.00" waitingCount="0" stopTime="0.00" timeLoss="4.86" rerouteNo="0" devices="tripinfo_CAVToC.17 routing_CAVToC.17 ssm_CAVToC.17 toc_CAVToC.17 driverstateCAVToC.17" vType="vehLVOS274" speedFactor="0.79" vaporized=""/>
    <tripinfo id="CAVToC.25" depart="71.20" departLane="entry_1" departPos="4.80" departSpeed="34.09" departDelay="8.20" arrival="231.50" arrivalLane="e0_1" arrivalPos="4800.00" arrivalSpeed="34.07" duration="160.30" routeLength="4995.20" waitingTime="0.00" waitingCount="0" stopTime="0.00" timeLoss="13.76" rerouteNo="0" devices="tripinfo_CAVToC.25 routing_CAVToC.25 ssm_CAVToC.25 toc_CAVToC.25 driverstateCAVToC.25" vType="vehLVOS845" speedFactor="0.94" vaporized=""/>
    <tripinfo id="LV.12" depart="72.60" departLane="entry_0" departPos="4.86" departSpeed="36.20" departDelay="8.60" arrival="232.40" arrivalLane="e0_1" arrivalPos="4800.00" arrivalSpeed="35.64" duration="159.80" routeLength="4995.14" waitingTime="0.00" waitingCount="0" stopTime="0.00" timeLoss="21.79" rerouteNo="0" devices="tripinfo_LV.12 routing_LV.12 ssm_LV.12" vType="vehLVOS648" speedFactor="1.00" vaporized=""/>
    <tripinfo id="CVToC.24" depart="54.30" departLane="entry_0" departPos="0.36" departSpeed="30.04" departDelay="8.80" arrival="233.10" arrivalLane="e0_0" arrivalPos="4800.00" arrivalSpeed="33.77" duration="178.80" routeLength="4999.64" waitingTime="0.00" waitingCount="0" stopTime="0.00" timeLoss="58.79" rerouteNo="0" devices="tripinfo_CVToC.24 routing_CVToC.24 ssm_CVToC.24 toc_CVToC.24 driverstateCVToC.24" vType="vehLVOS243" speedFactor="1.15" vaporized=""/>