<?xml version="1.0" encoding="UTF-8"?>

<!-- generated on 08/27/20 12:08:13 by Eclipse SUMO Version 1.6.0
<configuration xmlns:xsi="http://www.w3.org/2001/XMLSchema-instance" xsi:noNamespaceSchemaLocation="http://sumo.dlr.de/xsd/sumoConfiguration.xsd">

    <input>
        <net-file value="scenario/UC5_1.net.xml"/>
        <route-files value="scenario/routes_trafficMix_0_trafficDemand_1_driverBehaviour_OS_seed_0.xml"/>
        <additional-files value="scenario/additionalsOutput_trafficMix_0_trafficDemand_1_driverBehaviour_OS_seed_0.xml,scenario/vTypesCAVToC_OS.add.xml,scenario/vTypesCVToC_OS.add.xml,scenario/vTypesLV_OS.add.xml,scenario/shapes.add.xml,scenario/view.add.xml"/>
    </input>

    <output>
        <tripinfo-output value="C:\Users\laborknecht\Aris\workspace\tor-distribution/outputs/simulations/DQN__2020-08-26_20-57-26__20200827-113306/tripinfo_7.xml"/>
    </output>

    <time>
        <step-length value="0.1"/>
    </time>

    <processing>
        <step-method.ballistic value="true"/>
        <ignore-route-errors value="true"/>
        <lanechange.duration value="2.5"/>
    </processing>

    <report>
        <no-step-log value="true"/>
    </report>

    <toc_device>
        <device.toc.ogNewTimeHeadway value="100"/>
        <device.toc.ogNewSpaceHeadway value="5"/>
        <device.toc.ogMaxDecel value="1"/>
        <device.toc.ogChangeRate value="1"/>
    </toc_device>

    <traci_server>
        <remote-port value="56294"/>
    </traci_server>

    <random_number>
        <seed value="1031"/>
    </random_number>

    <gui_only>
        <tracker-interval value="0.1"/>
    </gui_only>

</configuration>
-->

<tripinfos xmlns:xsi="http://www.w3.org/2001/XMLSchema-instance" xsi:noNamespaceSchemaLocation="http://sumo.dlr.de/xsd/tripinfo_file.xsd">
    <tripinfo id="CAVToC.0" depart="4.10" departLane="entry_1" departPos="199.90" departSpeed="36.35" departDelay="0.00" arrival="133.70" arrivalLane="e0_0" arrivalPos="4800.00" arrivalSpeed="37.37" duration="129.60" routeLength="4800.10" waitingTime="0.00" waitingCount="0" stopTime="0.00" timeLoss="1.06" rerouteNo="0" devices="tripinfo_CAVToC.0 routing_CAVToC.0 ssm_CAVToC.0 toc_CAVToC.0 driverstateCAVToC.0" vType="vehLVOS670" speedFactor="1.03" vaporized=""/>
    <tripinfo id="LV.0" depart="0.00" departLane="entry_1" departPos="199.90" departSpeed="35.48" departDelay="0.00" arrival="135.40" arrivalLane="e0_0" arrivalPos="4800.00" arrivalSpeed="35.47" duration="135.40" routeLength="4800.10" waitingTime="0.00" waitingCount="0" stopTime="0.00" timeLoss="0.07" rerouteNo="0" devices="tripinfo_LV.0 routing_LV.0 ssm_LV.0" vType="vehLVOS721" speedFactor="0.98" vaporized=""/>
    <tripinfo id="CAVToC.1" depart="5.90" departLane="entry_0" departPos="199.90" departSpeed="36.34" departDelay="0.00" arrival="135.50" arrivalLane="e0_1" arrivalPos="4800.00" arrivalSpeed="37.69" duration="129.60" routeLength="4800.10" waitingTime="0.00" waitingCount="0" stopTime="0.00" timeLoss="2.20" rerouteNo="0" devices="tripinfo_CAVToC.1 routing_CAVToC.1 ssm_CAVToC.1 toc_CAVToC.1 driverstateCAVToC.1" vType="vehLVOS926" speedFactor="1.04" vaporized=""/>
    <tripinfo id="CVToC.0" depart="1.40" departLane="entry_0" departPos="199.90" departSpeed="38.84" departDelay="0.00" arrival="137.30" arrivalLane="e0_0" arrivalPos="4800.00" arrivalSpeed="37.63" duration="135.90" routeLength="4800.10" waitingTime="0.00" waitingCount="0" stopTime="0.00" timeLoss="12.23" rerouteNo="0" devices="tripinfo_CVToC.0 routing_CVToC.0 ssm_CVToC.0 toc_CVToC.0 driverstateCVToC.0" vType="vehLVOS781" speedFactor="1.08" vaporized=""/>
    <tripinfo id="LV.2" depart="9.00" departLane="entry_1" departPos="28.84" departSpeed="38.69" departDelay="0.00" arrival="155.40" arrivalLane="e0_0" arrivalPos="4800.00" arrivalSpeed="38.58" duration="146.40" routeLength="4971.16" waitingTime="0.00" waitingCount="0" stopTime="0.00" timeLoss="17.84" rerouteNo="0" devices="tripinfo_LV.2 routing_LV.2 ssm_LV.2" vType="vehLVOS492" speedFactor="1.07" vaporized=""/>
    <tripinfo id="LV.1" depart="7.00" departLane="entry_0" departPos="73.86" departSpeed="33.65" departDelay="0.00" arrival="164.00" arrivalLane="e0_0" arrivalPos="4800.00" arrivalSpeed="33.61" duration="157.00" routeLength="4926.14" waitingTime="0.00" waitingCount="0" stopTime="0.00" timeLoss="10.55" rerouteNo="0" devices="tripinfo_LV.1 routing_LV.1 ssm_LV.1" vType="vehLVOS647" speedFactor="0.93" vaporized=""/>
    <tripinfo id="CAVToC.3" depart="12.40" departLane="entry_1" departPos="80.42" departSpeed="34.49" departDelay="0.00" arrival="164.30" arrivalLane="e0_1" arrivalPos="4800.00" arrivalSpeed="34.61" duration="151.90" routeLength="4919.58" waitingTime="0.00" waitingCount="0" stopTime="0.00" timeLoss="9.72" rerouteNo="0" devices="tripinfo_CAVToC.3 routing_CAVToC.3 ssm_CAVToC.3 toc_CAVToC.3 driverstateCAVToC.3" vType="vehLVOS934" speedFactor="0.96" vaporized=""/>
    <tripinfo id="CAVToC.4" depart="13.80" departLane="entry_1" departPos="55.52" departSpeed="33.23" departDelay="0.00" arrival="171.00" arrivalLane="e0_0" arrivalPos="4800.00" arrivalSpeed="33.02" duration="157.20" routeLength="4944.48" waitingTime="0.00" waitingCount="0" stopTime="0.00" timeLoss="8.43" rerouteNo="0" devices="tripinfo_CAVToC.4 routing_CAVToC.4 ssm_CAVToC.4 toc_CAVToC.4 driverstateCAVToC.4" vType="vehLVOS192" speedFactor="0.92" vaporized=""/>
    <tripinfo id="LV.4" depart="14.50" departLane="entry_0" departPos="16.54" departSpeed="35.74" departDelay="0.10" arrival="173.00" arrivalLane="e0_1" arrivalPos="4800.00" arrivalSpeed="35.62" duration="158.50" routeLength="4983.46" waitingTime="0.00" waitingCount="0" stopTime="0.00" timeLoss="19.03" rerouteNo="0" devices="tripinfo_LV.4 routing_LV.4 ssm_LV.4" vType="vehLVOS294" speedFactor="0.99" vaporized=""/>
    <tripinfo id="CAVToC.5" depart="15.30" departLane="entry_1" departPos="37.22" departSpeed="33.25" departDelay="0.30" arrival="173.60" arrivalLane="e0_0" arrivalPos="4800.00" arrivalSpeed="33.30" duration="158.30" routeLength="4962.78" waitingTime="0.00" waitingCount="0" stopTime="0.00" timeLoss="9.44" rerouteNo="0" devices="tripinfo_CAVToC.5 routing_CAVToC.5 ssm_CAVToC.5 toc_CAVToC.5 driverstateCAVToC.5" vType="vehLVOS171" speedFactor="0.92" vaporized=""/>
    <tripinfo id="CVToC.6" depart="16.70" departLane="entry_1" departPos="1.29" departSpeed="33.48" departDelay="1.10" arrival="174.30" arrivalLane="e0_1" arrivalPos="4800.00" arrivalSpeed="37.48" duration="157.60" routeLength="4998.71" waitingTime="0.00" waitingCount="0" stopTime="0.00" timeLoss="24.43" rerouteNo="0" devices="tripinfo_CVToC.6 routing_CVToC.6 ssm_CVToC.6 toc_CVToC.6 driverstateCVToC.6" vType="vehLVOS404" speedFactor="1.04" vaporized=""/>
    <tripinfo id="CVToC.7" depart="19.60" departLane="entry_1" departPos="16.35" departSpeed="33.32" departDelay="2.10" arrival="177.50" arrivalLane="e0_1" arrivalPos="4800.00" arrivalSpeed="38.31" duration="157.90" routeLength="4983.65" waitingTime="0.00" waitingCount="0" stopTime="0.00" timeLoss="28.03" rerouteNo="0" devices="tripinfo_CVToC.7 routing_CVToC.7 ssm_CVToC.7 toc_CVToC.7 driverstateCVToC.7" vType="vehLVOS50" speedFactor="1.06" vaporized=""/>
    <tripinfo id="CVToC.5" depart="17.40" departLane="entry_0" departPos="24.92" departSpeed="33.07" departDelay="2.20" arrival="178.50" arrivalLane="e0_1" arrivalPos="4800.00" arrivalSpeed="39.57" duration="161.10" routeLength="4975.08" waitingTime="0.00" waitingCount="0" stopTime="0.00" timeLoss="44.34" rerouteNo="0" devices="tripinfo_CVToC.5 routing_CVToC.5 ssm_CVToC.5 toc_CVToC.5 driverstateCVToC.5" vType="vehLVOS423" speedFactor="1.18" vaporized=""/>
    <tripinfo id="CVToC.2" depart="13.00" departLane="entry_0" departPos="199.90" departSpeed="33.89" departDelay="0.00" arrival="182.70" arrivalLane="e0_1" arrivalPos="4800.00" arrivalSpeed="33.70" duration="169.70" routeLength="4800.10" waitingTime="0.00" waitingCount="0" stopTime="0.00" timeLoss="28.05" rerouteNo="0" devices="tripinfo_CVToC.2 routing_CVToC.2 ssm_CVToC.2 toc_CVToC.2 driverstateCVToC.2" vType="vehLVOS190" speedFactor="0.94" vaporized=""/>
    <tripinfo id="CVToC.3" depart="13.80" departLane="entry_0" departPos="146.71" departSpeed="31.95" departDelay="0.00" arrival="184.70" arrivalLane="e0_1" arrivalPos="4800.00" arrivalSpeed="36.33" duration="170.90" routeLength="4853.29" waitingTime="0.00" waitingCount="0" stopTime="0.00" timeLoss="42.16" rerouteNo="0" devices="tripinfo_CVToC.3 routing_CVToC.3 ssm_CVToC.3 toc_CVToC.3 driverstateCVToC.3" vType="vehLVOS30" speedFactor="1.04" vaporized=""/>
    <tripinfo id="CAVToC.2" depart="6.10" departLane="entry_1" departPos="199.90" departSpeed="27.15" departDelay="0.00" arrival="185.00" arrivalLane="e0_0" arrivalPos="4800.00" arrivalSpeed="26.88" duration="178.90" routeLength="4800.10" waitingTime="0.00" waitingCount="0" stopTime="0.00" timeLoss="2.01" rerouteNo="0" devices="tripinfo_CAVToC.2 routing_CAVToC.2 ssm_CAVToC.2 toc_CAVToC.2 driverstateCAVToC.2" vType="vehLVOS38" speedFactor="0.75" vaporized=""/>
    <tripinfo id="CVToC.1" depart="6.30" departLane="entry_0" departPos="135.48" departSpeed="36.36" departDelay="0.00" arrival="186.20" arrivalLane="e0_0" arrivalPos="4800.00" arrivalSpeed="28.70" duration="179.90" routeLength="4864.52" waitingTime="0.00" waitingCount="0" stopTime="0.00" timeLoss="47.43" rerouteNo="0" devices="tripinfo_CVToC.1 routing_CVToC.1 ssm_CVToC.1 toc_CVToC.1 driverstateCVToC.1" vType="vehLVOS882" speedFactor="1.02" vaporized=""/>
    <tripinfo id="CVToC.8" depart="19.40" departLane="entry_0" departPos="8.60" departSpeed="31.03" departDelay="0.60" arrival="186.30" arrivalLane="e0_1" arrivalPos="4800.00" arrivalSpeed="36.44" duration="166.90" routeLength="4991.40" waitingTime="0.00" waitingCount="0" stopTime="0.00" timeLoss="30.07" rerouteNo="0" devices="tripinfo_CVToC.8 routing_CVToC.8 ssm_CVToC.8 toc_CVToC.8 driverstateCVToC.8" vType="vehLVOS625" speedFactor="1.01" vaporized=""/>
    <tripinfo id="CVToC.4" depart="14.10" departLane="entry_0" departPos="80.84" departSpeed="32.16" departDelay="0.10" arrival="187.40" arrivalLane="e0_0" arrivalPos="4800.00" arrivalSpeed="31.61" duration="173.30" routeLength="4919.16" waitingTime="0.00" waitingCount="0" stopTime="0.00" timeLoss="27.95" rerouteNo="0" devices="tripinfo_CVToC.4 routing_CVToC.4 ssm_CVToC.4 toc_CVToC.4 driverstateCVToC.4" vType="vehLVOS721" speedFactor="0.94" vaporized=""/>
    <tripinfo id="CAVToC.6" depart="22.70" departLane="entry_1" departPos="50.39" departSpeed="31.10" departDelay="0.10" arrival="189.20" arrivalLane="e0_1" arrivalPos="4800.00" arrivalSpeed="31.08" duration="166.50" routeLength="4949.61" waitingTime="0.00" waitingCount="0" stopTime="0.00" timeLoss="7.30" rerouteNo="0" devices="tripinfo_CAVToC.6 routing_CAVToC.6 ssm_CAVToC.6 toc_CAVToC.6 driverstateCAVToC.6" vType="vehLVOS945" speedFactor="0.86" vaporized=""/>
    <tripinfo id="CVToC.9" depart="24.40" departLane="entry_1" departPos="18.74" departSpeed="32.14" departDelay="0.10" arrival="190.40" arrivalLane="e0_1" arrivalPos="4800.00" arrivalSpeed="32.54" duration="166.00" routeLength="4981.26" waitingTime="0.00" waitingCount="0" stopTime="0.00" timeLoss="43.51" rerouteNo="0" devices="tripinfo_CVToC.9 routing_CVToC.9 ssm_CVToC.9 toc_CVToC.9 driverstateCVToC.9" vType="vehLVOS774" speedFactor="1.13" vaporized=""/>
    <tripinfo id="CAVToC.7" depart="23.30" departLane="entry_0" departPos="50.06" departSpeed="31.42" departDelay="0.00" arrival="191.20" arrivalLane="e0_0" arrivalPos="4800.00" arrivalSpeed="34.65" duration="167.90" routeLength="4949.94" waitingTime="0.00" waitingCount="0" stopTime="0.00" timeLoss="31.18" rerouteNo="0" devices="tripinfo_CAVToC.7 routing_CAVToC.7 ssm_CAVToC.7 toc_CAVToC.7 driverstateCAVToC.7" vType="vehLVOS225" speedFactor="1.00" vaporized=""/>
    <tripinfo id="CAVToC.8" depart="26.50" departLane="entry_1" departPos="11.63" departSpeed="32.25" departDelay="0.00" arrival="193.50" arrivalLane="e0_1" arrivalPos="4800.00" arrivalSpeed="33.42" duration="167.00" routeLength="4988.37" waitingTime="0.00" waitingCount="0" stopTime="0.00" timeLoss="17.76" rerouteNo="0" devices="tripinfo_CAVToC.8 routing_CAVToC.8 ssm_CAVToC.8 toc_CAVToC.8 driverstateCAVToC.8" vType="vehLVOS172" speedFactor="0.93" vaporized=""/>
    <tripinfo id="CAVToC.10" depart="28.60" departLane="entry_1" departPos="0.75" departSpeed="32.58" departDelay="0.20" arrival="194.80" arrivalLane="e0_1" arrivalPos="4800.00" arrivalSpeed="34.49" duration="166.20" routeLength="4999.25" waitingTime="0.00" waitingCount="0" stopTime="0.00" timeLoss="29.87" rerouteNo="0" devices="tripinfo_CAVToC.10 routing_CAVToC.10 ssm_CAVToC.10 toc_CAVToC.10 driverstateCAVToC.10" vType="vehLVOS276" speedFactor="1.02" vaporized=""/>
    <tripinfo id="LV.3" depart="25.90" departLane="entry_0" departPos="2.84" departSpeed="38.54" departDelay="11.70" arrival="196.40" arrivalLane="e0_1" arrivalPos="4800.00" arrivalSpeed="34.72" duration="170.50" routeLength="4997.16" waitingTime="0.00" waitingCount="0" stopTime="0.00" timeLoss="40.84" rerouteNo="0" devices="tripinfo_LV.3 routing_LV.3 ssm_LV.3" vType="vehLVOS700" speedFactor="1.07" vaporized=""/>
    <tripinfo id="CAVToC.11" depart="31.20" departLane="entry_1" departPos="4.62" departSpeed="32.44" departDelay="0.90" arrival="197.70" arrivalLane="e0_1" arrivalPos="4800.00" arrivalSpeed="36.05" duration="166.50" routeLength="4995.38" waitingTime="0.00" waitingCount="0" stopTime="0.00" timeLoss="28.02" rerouteNo="0" devices="tripinfo_CAVToC.11 routing_CAVToC.11 ssm_CAVToC.11 toc_CAVToC.11 driverstateCAVToC.11" vType="vehLVOS401" speedFactor="1.00" vaporized=""/>
    <tripinfo id="CAVToC.9" depart="28.50" departLane="entry_0" departPos="1.29" departSpeed="34.32" departDelay="0.30" arrival="198.50" arrivalLane="e0_0" arrivalPos="4800.00" arrivalSpeed="36.78" duration="170.00" routeLength="4998.71" waitingTime="0.00" waitingCount="0" stopTime="0.00" timeLoss="50.78" rerouteNo="0" devices="tripinfo_CAVToC.9 routing_CAVToC.9 ssm_CAVToC.9 toc_CAVToC.9 driverstateCAVToC.9" vType="vehLVOS85" speedFactor="1.16" vaporized=""/>
    <tripinfo id="LV.5" depart="29.80" departLane="entry_0" departPos="6.14" departSpeed="34.05" departDelay="0.40" arrival="199.10" arrivalLane="e0_1" arrivalPos="4800.00" arrivalSpeed="33.94" duration="169.30" routeLength="4993.86" waitingTime="0.00" waitingCount="0" stopTime="0.00" timeLoss="22.56" rerouteNo="0" devices="tripinfo_LV.5 routing_LV.5 ssm_LV.5" vType="vehLVOS624" speedFactor="0.94" vaporized=""/>
    <tripinfo id="CAVToC.12" depart="33.30" departLane="entry_1" departPos="7.80" departSpeed="30.21" departDelay="0.00" arrival="203.30" arrivalLane="e0_1" arrivalPos="4800.00" arrivalSpeed="30.17" duration="170.00" routeLength="4992.20" waitingTime="0.00" waitingCount="0" stopTime="0.00" timeLoss="4.74" rerouteNo="0" devices="tripinfo_CAVToC.12 routing_CAVToC.12 ssm_CAVToC.12 toc_CAVToC.12 driverstateCAVToC.12" vType="vehLVOS234" speedFactor="0.84" vaporized=""/>
    <tripinfo id="CVToC.11" depart="36.00" departLane="entry_1" departPos="1.50" departSpeed="31.27" departDelay="1.50" arrival="204.40" arrivalLane="e0_1" arrivalPos="4800.00" arrivalSpeed="32.26" duration="168.40" routeLength="4998.50" waitingTime="0.00" waitingCount="0" stopTime="0.00" timeLoss="41.79" rerouteNo="0" devices="tripinfo_CVToC.11 routing_CVToC.11 ssm_CVToC.11 toc_CVToC.11 driverstateCVToC.11" vType="vehLVOS897" speedFactor="1.09" vaporized=""/>
    <tripinfo id="CVToC.10" depart="33.60" departLane="entry_0" departPos="40.48" departSpeed="32.47" departDelay="0.00" arrival="204.60" arrivalLane="e0_0" arrivalPos="4800.00" arrivalSpeed="31.88" duration="171.00" routeLength="4959.52" waitingTime="0.00" waitingCount="0" stopTime="0.00" timeLoss="48.85" rerouteNo="0" devices="tripinfo_CVToC.10 routing_CVToC.10 ssm_CVToC.10 toc_CVToC.10 driverstateCVToC.10" vType="vehLVOS216" speedFactor="1.12" vaporized=""/>
    <tripinfo id="LV.6" depart="37.00" departLane="entry_1" departPos="4.36" departSpeed="31.07" departDelay="2.50" arrival="208.10" arrivalLane="e0_1" arrivalPos="4800.00" arrivalSpeed="31.01" duration="171.10" routeLength="4995.64" waitingTime="0.00" waitingCount="0" stopTime="0.00" timeLoss="10.27" rerouteNo="0" devices="tripinfo_LV.6 routing_LV.6 ssm_LV.6" vType="vehLVOS428" speedFactor="0.86" vaporized=""/>
    <tripinfo id="LV.7" depart="44.80" departLane="entry_1" departPos="4.51" departSpeed="40.24" departDelay="4.70" arrival="209.00" arrivalLane="e0_1" arrivalPos="4800.00" arrivalSpeed="31.96" duration="164.20" routeLength="4995.49" waitingTime="0.00" waitingCount="0" stopTime="0.00" timeLoss="40.01" rerouteNo="0" devices="tripinfo_LV.7 routing_LV.7 ssm_LV.7" vType="vehLVOS316" speedFactor="1.11" vaporized=""/>
    <tripinfo id="CAVToC.14" depart="39.10" departLane="entry_1" departPos="2.22" departSpeed="30.96" departDelay="1.30" arrival="210.10" arrivalLane="e0_0" arrivalPos="4800.00" arrivalSpeed="31.17" duration="171.00" routeLength="4997.78" waitingTime="0.00" waitingCount="0" stopTime="0.00" timeLoss="10.89" rerouteNo="0" devices="tripinfo_CAVToC.14 routing_CAVToC.14 ssm_CAVToC.14 toc_CAVToC.14 driverstateCAVToC.14" vType="vehLVOS286" speedFactor="0.86" vaporized=""/>
    <tripinfo id="LV.11" depart="51.60" departLane="entry_1" departPos="106.04" departSpeed="35.07" departDelay="0.20" arrival="210.30" arrivalLane="e0_1" arrivalPos="4800.00" arrivalSpeed="35.02" duration="158.70" routeLength="4893.96" waitingTime="0.00" waitingCount="0" stopTime="0.00" timeLoss="19.13" rerouteNo="0" devices="tripinfo_LV.11 routing_LV.11 ssm_LV.11" vType="vehLVOS864" speedFactor="0.97" vaporized=""/>
    <tripinfo id="CVToC.15" depart="48.20" departLane="entry_1" departPos="68.20" departSpeed="31.22" departDelay="0.20" arrival="212.30" arrivalLane="e0_0" arrivalPos="4800.00" arrivalSpeed="31.21" duration="164.10" routeLength="4931.80" waitingTime="0.00" waitingCount="0" stopTime="0.00" timeLoss="6.07" rerouteNo="0" devices="tripinfo_CVToC.15 routing_CVToC.15 ssm_CVToC.15 toc_CVToC.15 driverstateCVToC.15" vType="vehLVOS419" speedFactor="0.86" vaporized=""/>
    <tripinfo id="CAVToC.15" depart="51.60" departLane="entry_1" departPos="16.14" departSpeed="35.74" departDelay="0.00" arrival="212.40" arrivalLane="e0_1" arrivalPos="4800.00" arrivalSpeed="39.63" duration="160.80" routeLength="4983.86" waitingTime="0.00" waitingCount="0" stopTime="0.00" timeLoss="37.49" rerouteNo="0" devices="tripinfo_CAVToC.15 routing_CAVToC.15 ssm_CAVToC.15 toc_CAVToC.15 driverstateCAVToC.15" vType="vehLVOS745" speedFactor="1.12" vaporized=""/>
    <tripinfo id="CVToC.16" depart="53.60" departLane="entry_1" departPos="9.83" departSpeed="35.22" departDelay="0.00" arrival="216.20" arrivalLane="e0_1" arrivalPos="4800.00" arrivalSpeed="35.25" duration="162.60" routeLength="4990.17" waitingTime="0.00" waitingCount="0" stopTime="0.00" timeLoss="21.08" rerouteNo="0" devices="tripinfo_CVToC.16 routing_CVToC.16 ssm_CVToC.16 toc_CVToC.16 driverstateCVToC.16" vType="vehLVOS615" speedFactor="0.98" vaporized=""/>
    <tripinfo id="CAVToC.13" depart="34.40" departLane="entry_0" departPos="2.22" departSpeed="28.65" departDelay="0.30" arrival="217.30" arrivalLane="e0_0" arrivalPos="4800.00" arrivalSpeed="28.58" duration="182.90" routeLength="4997.78" waitingTime="0.00" waitingCount="0" stopTime="0.00" timeLoss="8.41" rerouteNo="0" devices="tripinfo_CAVToC.13 routing_CAVToC.13 ssm_CAVToC.13 toc_CAVToC.13 driverstateCAVToC.13" vType="vehLVOS893" speedFactor="0.79" vaporized=""/>
    <tripinfo id="CAVToC.16" depart="56.40" departLane="entry_1" departPos="22.01" departSpeed="35.33" departDelay="0.00" arrival="217.80" arrivalLane="e0_1" arrivalPos="4800.00" arrivalSpeed="38.49" duration="161.40" routeLength="4977.99" waitingTime="0.00" waitingCount="0" stopTime="0.00" timeLoss="37.58" rerouteNo="0" devices="tripinfo_CAVToC.16 routing_CAVToC.16 ssm_CAVToC.16 toc_CAVToC.16 driverstateCAVToC.16" vType="vehLVOS790" speedFactor="1.11" vaporized=""/>
    <tripinfo id="CVToC.12" depart="37.30" departLane="entry_0" departPos="12.36" departSpeed="29.38" departDelay="0.00" arrival="218.70" arrivalLane="e0_0" arrivalPos="4800.00" arrivalSpeed="31.68" duration="181.40" routeLength="4987.64" waitingTime="0.00" waitingCount="0" stopTime="0.00" timeLoss="39.39" rerouteNo="0" devices="tripinfo_CVToC.12 routing_CVToC.12 ssm_CVToC.12 toc_CVToC.12 driverstateCVToC.12" vType="vehLVOS353" speedFactor="0.97" vaporized=""/>
    <tripinfo id="CVToC.13" depart="39.70" departLane="entry_0" departPos="1.39" departSpeed="30.24" departDelay="0.50" arrival="219.70" arrivalLane="e0_0" arrivalPos="4800.00" arrivalSpeed="31.30" duration="180.00" routeLength="4998.61" waitingTime="0.00" waitingCount="0" stopTime="0.00" timeLoss="49.06" rerouteNo="0" devices="tripinfo_CVToC.13 routing_CVToC.13 ssm_CVToC.13 toc_CVToC.13 driverstateCVToC.13" vType="vehLVOS624" speedFactor="1.06" vaporized=""/>
    <tripinfo id="LV.13" depart="56.50" departLane="entry_1" departPos="15.32" departSpeed="33.19" departDelay="0.20" arrival="220.10" arrivalLane="e0_1" arrivalPos="4800.00" arrivalSpeed="33.19" duration="163.60" routeLength="4984.68" waitingTime="0.00" waitingCount="0" stopTime="0.00" timeLoss="13.40" rerouteNo="0" devices="tripinfo_LV.13 routing_LV.13 ssm_LV.13" vType="vehLVOS883" speedFactor="0.92" vaporized=""/>
    <tripinfo id="CVToC.14" depart="46.90" departLane="entry_0" departPos="112.88" departSpeed="27.29" departDelay="0.30" arrival="222.30" arrivalLane="e0_0" arrivalPos="4800.00" arrivalSpeed="32.54" duration="175.40" routeLength="4887.12" waitingTime="0.00" waitingCount="0" stopTime="0.00" timeLoss="55.93" rerouteNo="0" devices="tripinfo_CVToC.14 routing_CVToC.14 ssm_CVToC.14 toc_CVToC.14 driverstateCVToC.14" vType="vehLVOS345" speedFactor="1.13" vaporized=""/>
    <tripinfo id="CVToC.18" depart="59.30" departLane="entry_1" departPos="19.93" departSpeed="34.09" departDelay="0.60" arrival="222.40" arrivalLane="e0_1" arrivalPos="4800.00" arrivalSpeed="36.38" duration="163.10" routeLength="4980.07" waitingTime="0.00" waitingCount="0" stopTime="0.00" timeLoss="44.05" rerouteNo="0" devices="tripinfo_CVToC.18 routing_CVToC.18 ssm_CVToC.18 toc_CVToC.18 driverstateCVToC.18" vType="vehLVOS1" speedFactor="1.16" vaporized=""/>
    <tripinfo id="LV.12" depart="55.30" departLane="entry_0" departPos="7.36" departSpeed="39.65" departDelay="0.50" arrival="223.40" arrivalLane="e0_1" arrivalPos="4800.00" arrivalSpeed="36.76" duration="168.10" routeLength="4992.64" waitingTime="0.00" waitingCount="0" stopTime="0.00" timeLoss="42.15" rerouteNo="0" devices="tripinfo_LV.12 routing_LV.12 ssm_LV.12" vType="vehLVOS165" speedFactor="1.10" vaporized=""/>
    <tripinfo id="LV.9" depart="47.70" departLane="entry_0" departPos="9.66" departSpeed="34.02" departDelay="0.00" arrival="223.50" arrivalLane="e0_0" arrivalPos="4800.00" arrivalSpeed="31.78" duration="175.80" routeLength="4990.34" waitingTime="0.00" waitingCount="0" stopTime="0.00" timeLoss="29.07" rerouteNo="0" devices="tripinfo_LV.9 routing_LV.9 ssm_LV.9" vType="vehLVOS571" speedFactor="0.94" vaporized=""/>
    <tripinfo id="LV.10" depart="49.30" departLane="entry_0" departPos="17.18" departSpeed="32.37" departDelay="0.00" arrival="224.80" arrivalLane="e0_0" arrivalPos="4800.00" arrivalSpeed="32.34" duration="175.50" routeLength="4982.82" waitingTime="0.00" waitingCount="0" stopTime="0.00" timeLoss="21.48" rerouteNo="0" devices="tripinfo_LV.10 routing_LV.10 ssm_LV.10" vType="vehLVOS713" speedFactor="0.90" vaporized=""/>
    <tripinfo id="CVToC.17" depart="53.90" departLane="entry_0" departPos="88.26" departSpeed="30.39" departDelay="0.00" arrival="226.70" arrivalLane="e0_0" arrivalPos="4800.00" arrivalSpeed="34.39" duration="172.80" routeLength="4911.74" waitingTime="0.00" waitingCount="0" stopTime="0.00" timeLoss="29.96" rerouteNo="0" devices="tripinfo_CVToC.17 routing_CVToC.17 ssm_CVToC.17 toc_CVToC.17 driverstateCVToC.17" vType="vehLVOS52" speedFactor="0.95" vaporized=""/>
    <tripinfo id="CAVToC.17" depart="58.60" departLane="entry_0" departPos="53.69" departSpeed="36.41" departDelay="0.20" arrival="229.20" arrivalLane="e0_0" arrivalPos="4800.00" arrivalSpeed="37.41" duration="170.60" routeLength="4946.31" waitingTime="0.00" waitingCount="0" stopTime="0.00" timeLoss="41.89" rerouteNo="0" devices="tripinfo_CAVToC.17 routing_CAVToC.17 ssm_CAVToC.17 toc_CAVToC.17 driverstateCAVToC.17" vType="vehLVOS533" speedFactor="1.06" vaporized=""/>
    <tripinfo id="CVToC.20" depart="61.30" departLane="entry_1" departPos="25.18" departSpeed="30.35" departDelay="0.10" arrival="230.40" arrivalLane="e0_1" arrivalPos="4800.00" arrivalSpeed="30.35" duration="169.10" routeLength="4974.82" waitingTime="0.00" waitingCount="0" stopTime="0.00" timeLoss="5.11" rerouteNo="0" devices="tripinfo_CVToC.20 routing_CVToC.20 ssm_CVToC.20 toc_CVToC.20 driverstateCVToC.20" vType="vehLVOS344" speedFactor="0.84" vaporized=""/>
    <tripinfo id="CVToC.21" depart="63.30" departLane="entry_1" departPos="10.68" departSpeed="30.79" departDelay="1.40" arrival="231.30" arrivalLane="e0_1" arrivalPos="4800.00" arrivalSpeed="31.51" duration="168.00" routeLength="4989.32" waitingTime="0.00" waitingCount="0" stopTime="0.00" timeLoss="18.89" rerouteNo="0" devices="tripinfo_CVToC.21 routing_CVToC.21 ssm_CVToC.21 toc_CVToC.21 driverstateCVToC.21" vType="vehLVOS97" speedFactor="0.93" vaporized=""/>
    <tripinfo id="CAVToC.18" depart="60.40" departLane="entry_0" departPos="48.57" departSpeed="30.21" departDelay="0.20" arrival="231.90" arrivalLane="e0_0" arrivalPos="4800.00" arrivalSpeed="30.00" duration="171.50" routeLength="4951.43" waitingTime="0.00" waitingCount="0" stopTime="0.00" timeLoss="7.60" rerouteNo="0" devices="tripinfo_CAVToC.18 routing_CAVToC.18 ssm_CAVToC.18 toc_CAVToC.18 driverstateCAVToC.18" vType="vehLVOS170" speedFactor="0.84" vaporized=""/>
    <tripinfo id="LV.14" depart="65.10" departLane="entry_1" departPos="3.32" departSpeed="33.30" departDelay="3.10" arrival="232.50" arrivalLane="e0_1" arrivalPos="4800.00" arrivalSpeed="32.94" duration="167.40" routeLength="4996.68" waitingTime="0.00" waitingCount="0" stopTime="0.00" timeLoss="17.36" rerouteNo="0" devices="tripinfo_LV.14 routing_LV.14 ssm_LV.14" vType="vehLVOS909" speedFactor="0.92" vaporized=""/>
    <tripinfo id="CVToC.19" depart="61.90" departLane="entry_0" departPos="14.10" departSpeed="30.98" departDelay="1.60" arrival="233.10" arrivalLane="e0_0" arrivalPos="4800.00" arrivalSpeed="33.92" duration="171.20" routeLength="4985.90" waitingTime="0.00" waitingCount="0" stopTime="0.00" timeLoss="35.77" rerouteNo="0" devices="tripinfo_CVToC.19 routing_CVToC.19 ssm_CVToC.19 toc_CVToC.19 driverstateCVToC.19" vType="vehLVOS163" speedFactor="1.02" vaporized=""/>
    <tripinfo id="CVToC.23" depart="67.50" departLane="entry_1" departPos="10.15" departSpeed="33.04" departDelay="5.10" arrival="233.80" arrivalLane="e0_1" arrivalPos="4800.00" arrivalSpeed="32.97" duration="166.30" routeLength="4989.85" waitingTime="0.00" waitingCount="0" stopTime="0.00" timeLoss="21.96" rerouteNo="0" devices="tripinfo_CVToC.23 routing_CVToC.23 ssm_CVToC.23 toc_CVToC.23 driverstateCVToC.23" vType="vehLVOS803" speedFactor="0.96" vaporized=""/>
    <tripinfo id="CAVToC.20" depart="70.20" departLane="entry_1" departPos="21.13" departSpeed="33.01" departDelay="4.20" arrival="234.70" arrivalLane="e0_1" arrivalPos="4800.00" arrivalSpeed="34.59" duration="164.50" routeLength="4978.87" waitingTime="0.00" waitingCount="0" stopTime="0.00" timeLoss="23.47" rerouteNo="0" devices="tripinfo_CAVToC.20 routing_CAVToC.20 ssm_CAVToC.20 toc_CAVToC.20 driverstateCAVToC.20" vType="vehLVOS422" speedFactor="0.98" vaporized=""/>
    <tripinfo id="CVToC.22" depart="63.70" departLane="entry_0" departPos="1.55" departSpeed="30.59" departDelay="1.40" arrival="235.50" arrivalLane="e0_0" arrivalPos="4800.00" arrivalSpeed="31.64" duration="171.80" routeLength="4998.45" waitingTime="0.00" waitingCount="0" stopTime="0.00" timeLoss="13.86" rerouteNo="0" devices="tripinfo_CVToC.22 routing_CVToC.22 ssm_CVToC.22 toc_CVToC.22 driverstateCVToC.22" vType="vehLVOS914" speedFactor="0.88" vaporized=""/>
    <tripinfo id="CVToC.25" depart="73.80" departLane="entry_1" departPos="51.31" departSpeed="33.07" departDelay="5.20" arrival="235.60" arrivalLane="e0_1" arrivalPos="4800.00" arrivalSpeed="34.74" duration="161.80" routeLength="4948.69" waitingTime="0.00" waitingCount="0" stopTime="0.00" timeLoss="35.93" rerouteNo="0" devices="tripinfo_CVToC.25 routing_CVToC.25 ssm_CVToC.25 toc_CVToC.25 driverstateCVToC.25" vType="vehLVOS530" speedFactor="1.09" vaporized=""/>
    <tripinfo id="CVToC.27" depart="75.00" departLane="entry_1" departPos="11.38" departSpeed="33.43" departDelay="5.40" arrival="237.20" arrivalLane="e0_1" arrivalPos="4800.00" arrivalSpeed="35.67" duration="162.20" routeLength="4988.62" waitingTime="0.00" waitingCount="0" stopTime="0.00" timeLoss="29.68" rerouteNo="0" devices="tripinfo_CVToC.27 routing_CVToC.27 ssm_CVToC.27 toc_CVToC.27 driverstateCVToC.27" vType="vehLVOS946" speedFactor="1.04" vaporized=""/>
    <tripinfo id="CAVToC.19" depart="65.80" departLane="entry_0" departPos="0.82" departSpeed="29.38" departDelay="1.90" arrival="237.40" arrivalLane="e0_0" arrivalPos="4800.00" arrivalSpeed="30.83" duration="171.60" routeLength="4999.18" waitingTime="0.00" waitingCount="0" stopTime="0.00" timeLoss="9.57" rerouteNo="0" devices="tripinfo_CAVToC.19 routing_CAVToC.19 ssm_CAVToC.19 toc_CAVToC.19 driverstateCAVToC.19" vType="vehLVOS973" speedFactor="0.85" vaporized=""/>