<?xml version="1.0" encoding="UTF-8"?>

<!-- generated on 08/27/20 11:51:02 by Eclipse SUMO Version 1.6.0
<configuration xmlns:xsi="http://www.w3.org/2001/XMLSchema-instance" xsi:noNamespaceSchemaLocation="http://sumo.dlr.de/xsd/sumoConfiguration.xsd">

    <input>
        <net-file value="scenario/UC5_1.net.xml"/>
        <route-files value="scenario/routes_trafficMix_0_trafficDemand_1_driverBehaviour_OS_seed_0.xml"/>
        <additional-files value="scenario/additionalsOutput_trafficMix_0_trafficDemand_1_driverBehaviour_OS_seed_0.xml,scenario/vTypesCAVToC_OS.add.xml,scenario/vTypesCVToC_OS.add.xml,scenario/vTypesLV_OS.add.xml,scenario/shapes.add.xml,scenario/view.add.xml"/>
    </input>

    <output>
        <tripinfo-output value="C:\Users\laborknecht\Aris\workspace\tor-distribution/outputs/simulations/DQN__2020-08-26_20-57-26__20200827-113306/tripinfo_4.xml"/>
    </output>

    <time>
        <step-length value="0.1"/>
    </time>

    <processing>
        <step-method.ballistic value="true"/>
        <ignore-route-errors value="true"/>
        <lanechange.duration value="2.5"/>
    </processing>

    <report>
        <no-step-log value="true"/>
    </report>

    <toc_device>
        <device.toc.ogNewTimeHeadway value="100"/>
        <device.toc.ogNewSpaceHeadway value="5"/>
        <device.toc.ogMaxDecel value="1"/>
        <device.toc.ogChangeRate value="1"/>
    </toc_device>

    <traci_server>
        <remote-port value="56258"/>
    </traci_server>

    <random_number>
        <seed value="1028"/>
    </random_number>

    <gui_only>
        <tracker-interval value="0.1"/>
    </gui_only>

</configuration>
-->

<tripinfos xmlns:xsi="http://www.w3.org/2001/XMLSchema-instance" xsi:noNamespaceSchemaLocation="http://sumo.dlr.de/xsd/tripinfo_file.xsd">
    <tripinfo id="CAVToC.0" depart="0.20" departLane="entry_1" departPos="199.90" departSpeed="28.35" departDelay="0.00" arrival="169.70" arrivalLane="e0_1" arrivalPos="4800.00" arrivalSpeed="28.34" duration="169.50" routeLength="4800.10" waitingTime="0.00" waitingCount="0" stopTime="0.00" timeLoss="0.15" rerouteNo="0" devices="tripinfo_CAVToC.0 routing_CAVToC.0 ssm_CAVToC.0 toc_CAVToC.0 driverstateCAVToC.0" vType="vehLVOS604" speedFactor="0.79" vaporized=""/>
    <tripinfo id="CVToC.0" depart="2.30" departLane="entry_1" departPos="182.66" departSpeed="29.18" departDelay="0.00" arrival="171.20" arrivalLane="e0_1" arrivalPos="4800.00" arrivalSpeed="31.73" duration="168.90" routeLength="4817.34" waitingTime="0.00" waitingCount="0" stopTime="0.00" timeLoss="33.75" rerouteNo="0" devices="tripinfo_CVToC.0 routing_CVToC.0 ssm_CVToC.0 toc_CVToC.0 driverstateCVToC.0" vType="vehLVOS424" speedFactor="0.99" vaporized=""/>
    <tripinfo id="CAVToC.1" depart="3.30" departLane="entry_0" departPos="199.90" departSpeed="35.90" departDelay="0.00" arrival="171.40" arrivalLane="e0_0" arrivalPos="4800.00" arrivalSpeed="30.92" duration="168.10" routeLength="4800.10" waitingTime="0.00" waitingCount="0" stopTime="0.00" timeLoss="34.34" rerouteNo="0" devices="tripinfo_CAVToC.1 routing_CAVToC.1 ssm_CAVToC.1 toc_CAVToC.1 driverstateCAVToC.1" vType="vehLVOS753" speedFactor="0.99" vaporized=""/>
    <tripinfo id="CVToC.2" depart="4.10" departLane="entry_0" departPos="165.29" departSpeed="30.10" departDelay="0.00" arrival="173.20" arrivalLane="e0_0" arrivalPos="4800.00" arrivalSpeed="30.10" duration="169.10" routeLength="4834.71" waitingTime="0.00" waitingCount="0" stopTime="0.00" timeLoss="8.41" rerouteNo="0" devices="tripinfo_CVToC.2 routing_CVToC.2 ssm_CVToC.2 toc_CVToC.2 driverstateCVToC.2" vType="vehLVOS819" speedFactor="0.83" vaporized=""/>
    <tripinfo id="CVToC.1" depart="3.00" departLane="entry_1" departPos="127.75" departSpeed="29.79" departDelay="0.00" arrival="173.40" arrivalLane="e0_1" arrivalPos="4800.00" arrivalSpeed="33.85" duration="170.40" routeLength="4872.25" waitingTime="0.00" waitingCount="0" stopTime="0.00" timeLoss="30.22" rerouteNo="0" devices="tripinfo_CVToC.1 routing_CVToC.1 ssm_CVToC.1 toc_CVToC.1 driverstateCVToC.1" vType="vehLVOS230" speedFactor="0.96" vaporized=""/>
    <tripinfo id="CAVToC.2" depart="3.40" departLane="entry_1" departPos="75.20" departSpeed="29.93" departDelay="0.00" arrival="175.10" arrivalLane="e0_1" arrivalPos="4800.00" arrivalSpeed="30.45" duration="171.70" routeLength="4924.80" waitingTime="0.00" waitingCount="0" stopTime="0.00" timeLoss="10.18" rerouteNo="0" devices="tripinfo_CAVToC.2 routing_CAVToC.2 ssm_CAVToC.2 toc_CAVToC.2 driverstateCAVToC.2" vType="vehLVOS461" speedFactor="0.84" vaporized=""/>
    <tripinfo id="CVToC.3" depart="4.50" departLane="entry_0" departPos="104.47" departSpeed="30.70" departDelay="0.00" arrival="176.00" arrivalLane="e0_0" arrivalPos="4800.00" arrivalSpeed="31.95" duration="171.50" routeLength="4895.53" waitingTime="0.00" waitingCount="0" stopTime="0.00" timeLoss="32.43" rerouteNo="0" devices="tripinfo_CVToC.3 routing_CVToC.3 ssm_CVToC.3 toc_CVToC.3 driverstateCVToC.3" vType="vehLVOS162" speedFactor="0.98" vaporized=""/>
    <tripinfo id="LV.1" depart="5.90" departLane="entry_1" departPos="36.23" departSpeed="37.34" departDelay="0.00" arrival="176.40" arrivalLane="e0_1" arrivalPos="4800.00" arrivalSpeed="33.27" duration="170.50" routeLength="4963.77" waitingTime="0.00" waitingCount="0" stopTime="0.00" timeLoss="37.53" rerouteNo="0" devices="tripinfo_LV.1 routing_LV.1 ssm_LV.1" vType="vehLVOS936" speedFactor="1.03" vaporized=""/>
    <tripinfo id="LV.0" depart="5.70" departLane="entry_0" departPos="77.11" departSpeed="35.18" departDelay="0.00" arrival="176.80" arrivalLane="e0_0" arrivalPos="4800.00" arrivalSpeed="32.65" duration="171.10" routeLength="4922.89" waitingTime="0.00" waitingCount="0" stopTime="0.00" timeLoss="31.18" rerouteNo="0" devices="tripinfo_LV.0 routing_LV.0 ssm_LV.0" vType="vehLVOS40" speedFactor="0.97" vaporized=""/>
    <tripinfo id="CVToC.5" depart="7.60" departLane="entry_1" departPos="35.67" departSpeed="29.24" departDelay="0.00" arrival="178.10" arrivalLane="e0_1" arrivalPos="4800.00" arrivalSpeed="29.22" duration="170.50" routeLength="4964.33" waitingTime="0.00" waitingCount="0" stopTime="0.00" timeLoss="0.73" rerouteNo="0" devices="tripinfo_CVToC.5 routing_CVToC.5 ssm_CVToC.5 toc_CVToC.5 driverstateCVToC.5" vType="vehLVOS424" speedFactor="0.81" vaporized=""/>
    <tripinfo id="CVToC.4" depart="6.80" departLane="entry_0" departPos="43.46" departSpeed="34.78" departDelay="0.20" arrival="180.20" arrivalLane="e0_0" arrivalPos="4800.00" arrivalSpeed="32.24" duration="173.40" routeLength="4956.54" waitingTime="0.00" waitingCount="0" stopTime="0.00" timeLoss="30.83" rerouteNo="0" devices="tripinfo_CVToC.4 routing_CVToC.4 ssm_CVToC.4 toc_CVToC.4 driverstateCVToC.4" vType="vehLVOS821" speedFactor="0.96" vaporized=""/>
    <tripinfo id="CAVToC.3" depart="9.30" departLane="entry_1" departPos="2.64" departSpeed="30.14" departDelay="1.20" arrival="181.50" arrivalLane="e0_1" arrivalPos="4800.00" arrivalSpeed="34.63" duration="172.20" routeLength="4997.36" waitingTime="0.00" waitingCount="0" stopTime="0.00" timeLoss="36.81" rerouteNo="0" devices="tripinfo_CAVToC.3 routing_CAVToC.3 ssm_CAVToC.3 toc_CAVToC.3 driverstateCAVToC.3" vType="vehLVOS832" speedFactor="1.02" vaporized=""/>
    <tripinfo id="CVToC.6" depart="8.10" departLane="entry_0" departPos="0.53" departSpeed="35.03" departDelay="0.20" arrival="182.60" arrivalLane="e0_0" arrivalPos="4800.00" arrivalSpeed="34.12" duration="174.50" routeLength="4999.47" waitingTime="0.00" waitingCount="0" stopTime="0.00" timeLoss="52.69" rerouteNo="0" devices="tripinfo_CVToC.6 routing_CVToC.6 ssm_CVToC.6 toc_CVToC.6 driverstateCVToC.6" vType="vehLVOS879" speedFactor="1.14" vaporized=""/>
    <tripinfo id="CAVToC.4" depart="12.10" departLane="entry_1" departPos="7.65" departSpeed="30.62" departDelay="3.00" arrival="183.40" arrivalLane="e0_1" arrivalPos="4800.00" arrivalSpeed="35.05" duration="171.30" routeLength="4992.35" waitingTime="0.00" waitingCount="0" stopTime="0.00" timeLoss="28.94" rerouteNo="0" devices="tripinfo_CAVToC.4 routing_CAVToC.4 ssm_CAVToC.4 toc_CAVToC.4 driverstateCAVToC.4" vType="vehLVOS225" speedFactor="0.97" vaporized=""/>
    <tripinfo id="CVToC.8" depart="10.70" departLane="entry_0" departPos="2.37" departSpeed="29.40" departDelay="1.10" arrival="183.70" arrivalLane="e0_0" arrivalPos="4800.00" arrivalSpeed="35.37" duration="173.00" routeLength="4997.63" waitingTime="0.00" waitingCount="0" stopTime="0.00" timeLoss="37.06" rerouteNo="0" devices="tripinfo_CVToC.8 routing_CVToC.8 ssm_CVToC.8 toc_CVToC.8 driverstateCVToC.8" vType="vehLVOS813" speedFactor="1.02" vaporized=""/>
    <tripinfo id="LV.2" depart="14.00" departLane="entry_1" departPos="0.56" departSpeed="34.54" departDelay="1.40" arrival="184.80" arrivalLane="e0_0" arrivalPos="4800.00" arrivalSpeed="34.51" duration="170.80" routeLength="4999.44" waitingTime="0.00" waitingCount="0" stopTime="0.00" timeLoss="25.97" rerouteNo="0" devices="tripinfo_LV.2 routing_LV.2 ssm_LV.2" vType="vehLVOS870" speedFactor="0.96" vaporized=""/>
    <tripinfo id="CAVToC.5" depart="16.80" departLane="entry_1" departPos="9.50" departSpeed="33.99" departDelay="4.90" arrival="185.40" arrivalLane="e0_1" arrivalPos="4800.00" arrivalSpeed="37.22" duration="168.60" routeLength="4990.50" waitingTime="0.00" waitingCount="0" stopTime="0.00" timeLoss="39.75" rerouteNo="0" devices="tripinfo_CAVToC.5 routing_CAVToC.5 ssm_CAVToC.5 toc_CAVToC.5 driverstateCAVToC.5" vType="vehLVOS82" speedFactor="1.07" vaporized=""/>
    <tripinfo id="CVToC.7" depart="13.70" departLane="entry_0" departPos="1.89" departSpeed="28.71" departDelay="4.70" arrival="185.70" arrivalLane="e0_0" arrivalPos="4800.00" arrivalSpeed="35.73" duration="172.00" routeLength="4998.11" waitingTime="0.00" waitingCount="0" stopTime="0.00" timeLoss="40.42" rerouteNo="0" devices="tripinfo_CVToC.7 routing_CVToC.7 ssm_CVToC.7 toc_CVToC.7 driverstateCVToC.7" vType="vehLVOS69" speedFactor="1.05" vaporized=""/>
    <tripinfo id="LV.4" depart="21.60" departLane="entry_1" departPos="2.47" departSpeed="44.20" departDelay="3.20" arrival="186.60" arrivalLane="e0_1" arrivalPos="4800.00" arrivalSpeed="36.54" duration="165.00" routeLength="4997.53" waitingTime="0.00" waitingCount="0" stopTime="0.00" timeLoss="51.93" rerouteNo="0" devices="tripinfo_LV.4 routing_LV.4 ssm_LV.4" vType="vehLVOS394" speedFactor="1.22" vaporized=""/>
    <tripinfo id="CVToC.9" depart="18.90" departLane="entry_0" departPos="71.71" departSpeed="29.09" departDelay="0.30" arrival="187.80" arrivalLane="e0_0" arrivalPos="4800.00" arrivalSpeed="34.62" duration="168.90" routeLength="4928.29" waitingTime="0.00" waitingCount="0" stopTime="0.00" timeLoss="26.70" rerouteNo="0" devices="tripinfo_CVToC.9 routing_CVToC.9 ssm_CVToC.9 toc_CVToC.9 driverstateCVToC.9" vType="vehLVOS41" speedFactor="0.96" vaporized=""/>
    <tripinfo id="LV.3" depart="23.60" departLane="entry_1" departPos="2.70" departSpeed="42.58" departDelay="7.70" arrival="188.30" arrivalLane="e0_1" arrivalPos="4800.00" arrivalSpeed="38.58" duration="164.70" routeLength="4997.30" waitingTime="0.00" waitingCount="0" stopTime="0.00" timeLoss="47.31" rerouteNo="0" devices="tripinfo_LV.3 routing_LV.3 ssm_LV.3" vType="vehLVOS55" speedFactor="1.18" vaporized=""/>
    <tripinfo id="CAVToC.7" depart="23.50" departLane="entry_0" departPos="45.42" departSpeed="31.57" departDelay="0.00" arrival="189.70" arrivalLane="e0_1" arrivalPos="4800.00" arrivalSpeed="35.88" duration="166.20" routeLength="4954.58" waitingTime="0.00" waitingCount="0" stopTime="0.00" timeLoss="28.20" rerouteNo="0" devices="tripinfo_CAVToC.7 routing_CAVToC.7 ssm_CAVToC.7 toc_CAVToC.7 driverstateCAVToC.7" vType="vehLVOS121" speedFactor="0.99" vaporized=""/>
    <tripinfo id="CAVToC.6" depart="20.80" departLane="entry_0" departPos="38.57" departSpeed="30.49" departDelay="0.50" arrival="189.80" arrivalLane="e0_0" arrivalPos="4800.00" arrivalSpeed="35.98" duration="169.00" routeLength="4961.43" waitingTime="0.00" waitingCount="0" stopTime="0.00" timeLoss="43.94" rerouteNo="0" devices="tripinfo_CAVToC.6 routing_CAVToC.6 ssm_CAVToC.6 toc_CAVToC.6 driverstateCAVToC.6" vType="vehLVOS250" speedFactor="1.10" vaporized=""/>
    <tripinfo id="CAVToC.9" depart="27.20" departLane="entry_1" departPos="0.45" departSpeed="28.92" departDelay="0.20" arrival="195.40" arrivalLane="e0_1" arrivalPos="4800.00" arrivalSpeed="34.97" duration="168.20" routeLength="4999.55" waitingTime="0.00" waitingCount="0" stopTime="0.00" timeLoss="25.55" rerouteNo="0" devices="tripinfo_CAVToC.9 routing_CAVToC.9 ssm_CAVToC.9 toc_CAVToC.9 driverstateCAVToC.9" vType="vehLVOS159" speedFactor="0.97" vaporized=""/>
    <tripinfo id="CAVToC.8" depart="24.40" departLane="entry_0" departPos="8.64" departSpeed="29.45" departDelay="0.50" arrival="197.00" arrivalLane="e0_0" arrivalPos="4800.00" arrivalSpeed="29.38" duration="172.60" routeLength="4991.36" waitingTime="0.00" waitingCount="0" stopTime="0.00" timeLoss="3.03" rerouteNo="0" devices="tripinfo_CAVToC.8 routing_CAVToC.8 ssm_CAVToC.8 toc_CAVToC.8 driverstateCAVToC.8" vType="vehLVOS938" speedFactor="0.82" vaporized=""/>
    <tripinfo id="CVToC.12" depart="29.80" departLane="entry_1" departPos="3.76" departSpeed="29.26" departDelay="0.50" arrival="198.70" arrivalLane="e0_1" arrivalPos="4800.00" arrivalSpeed="32.42" duration="168.90" routeLength="4996.24" waitingTime="0.00" waitingCount="0" stopTime="0.00" timeLoss="14.90" rerouteNo="0" devices="tripinfo_CVToC.12 routing_CVToC.12 ssm_CVToC.12 toc_CVToC.12 driverstateCVToC.12" vType="vehLVOS27" speedFactor="0.90" vaporized=""/>
    <tripinfo id="CVToC.13" depart="32.20" departLane="entry_1" departPos="0.50" departSpeed="29.73" departDelay="1.40" arrival="200.80" arrivalLane="e0_1" arrivalPos="4800.00" arrivalSpeed="34.32" duration="168.60" routeLength="4999.50" waitingTime="0.00" waitingCount="0" stopTime="0.00" timeLoss="23.10" rerouteNo="0" devices="tripinfo_CVToC.13 routing_CVToC.13 ssm_CVToC.13 toc_CVToC.13 driverstateCVToC.13" vType="vehLVOS582" speedFactor="0.95" vaporized=""/>
    <tripinfo id="CVToC.10" depart="26.10" departLane="entry_1" departPos="47.92" departSpeed="28.09" departDelay="0.20" arrival="202.60" arrivalLane="e0_0" arrivalPos="4800.00" arrivalSpeed="28.09" duration="176.50" routeLength="4952.08" waitingTime="0.00" waitingCount="0" stopTime="0.00" timeLoss="0.20" rerouteNo="0" devices="tripinfo_CVToC.10 routing_CVToC.10 ssm_CVToC.10 toc_CVToC.10 driverstateCVToC.10" vType="vehLVOS555" speedFactor="0.78" vaporized=""/>
    <tripinfo id="CVToC.15" depart="35.20" departLane="entry_1" departPos="2.60" departSpeed="30.62" departDelay="2.20" arrival="203.20" arrivalLane="e0_1" arrivalPos="4800.00" arrivalSpeed="39.47" duration="168.00" routeLength="4997.40" waitingTime="0.00" waitingCount="0" stopTime="0.00" timeLoss="41.54" rerouteNo="0" devices="tripinfo_CVToC.15 routing_CVToC.15 ssm_CVToC.15 toc_CVToC.15 driverstateCVToC.15" vType="vehLVOS444" speedFactor="1.09" vaporized=""/>
    <tripinfo id="CAVToC.10" depart="27.60" departLane="entry_0" departPos="26.51" departSpeed="30.11" departDelay="0.10" arrival="204.50" arrivalLane="e0_0" arrivalPos="4800.00" arrivalSpeed="29.39" duration="176.90" routeLength="4973.49" waitingTime="0.00" waitingCount="0" stopTime="0.00" timeLoss="34.04" rerouteNo="0" devices="tripinfo_CAVToC.10 routing_CAVToC.10 ssm_CAVToC.10 toc_CAVToC.10 driverstateCAVToC.10" vType="vehLVOS211" speedFactor="0.96" vaporized=""/>
    <tripinfo id="CVToC.16" depart="39.80" departLane="entry_1" departPos="4.08" departSpeed="31.74" departDelay="3.80" arrival="205.00" arrivalLane="e0_1" arrivalPos="4800.00" arrivalSpeed="36.57" duration="165.20" routeLength="4995.92" waitingTime="0.00" waitingCount="0" stopTime="0.00" timeLoss="32.82" rerouteNo="0" devices="tripinfo_CVToC.16 routing_CVToC.16 ssm_CVToC.16 toc_CVToC.16 driverstateCVToC.16" vType="vehLVOS700" speedFactor="1.05" vaporized=""/>
    <tripinfo id="LV.6" depart="37.10" departLane="entry_1" departPos="4.08" departSpeed="31.52" departDelay="1.80" arrival="206.30" arrivalLane="e0_0" arrivalPos="4800.00" arrivalSpeed="31.49" duration="169.20" routeLength="4995.92" waitingTime="0.00" waitingCount="0" stopTime="0.00" timeLoss="10.69" rerouteNo="0" devices="tripinfo_LV.6 routing_LV.6 ssm_LV.6" vType="vehLVOS286" speedFactor="0.87" vaporized=""/>
    <tripinfo id="CAVToC.14" depart="42.00" departLane="entry_1" departPos="2.08" departSpeed="31.62" departDelay="4.50" arrival="207.80" arrivalLane="e0_1" arrivalPos="4800.00" arrivalSpeed="32.92" duration="165.80" routeLength="4997.92" waitingTime="0.00" waitingCount="0" stopTime="0.00" timeLoss="14.01" rerouteNo="0" devices="tripinfo_CAVToC.14 routing_CAVToC.14 ssm_CAVToC.14 toc_CAVToC.14 driverstateCAVToC.14" vType="vehLVOS662" speedFactor="0.91" vaporized=""/>
    <tripinfo id="CVToC.18" depart="45.10" departLane="entry_1" departPos="16.60" departSpeed="31.97" departDelay="5.60" arrival="209.10" arrivalLane="e0_1" arrivalPos="4800.00" arrivalSpeed="34.83" duration="164.00" routeLength="4983.40" waitingTime="0.00" waitingCount="0" stopTime="0.00" timeLoss="31.98" rerouteNo="0" devices="tripinfo_CVToC.18 routing_CVToC.18 ssm_CVToC.18 toc_CVToC.18 driverstateCVToC.18" vType="vehLVOS403" speedFactor="1.05" vaporized=""/>
    <tripinfo id="CVToC.20" depart="47.70" departLane="entry_1" departPos="16.10" departSpeed="32.44" departDelay="6.30" arrival="210.90" arrivalLane="e0_1" arrivalPos="4800.00" arrivalSpeed="39.04" duration="163.20" routeLength="4983.90" waitingTime="0.00" waitingCount="0" stopTime="0.00" timeLoss="35.53" rerouteNo="0" devices="tripinfo_CVToC.20 routing_CVToC.20 ssm_CVToC.20 toc_CVToC.20 driverstateCVToC.20" vType="vehLVOS248" speedFactor="1.08" vaporized=""/>
    <tripinfo id="CAVToC.11" depart="29.30" departLane="entry_0" departPos="15.11" departSpeed="28.00" departDelay="0.10" arrival="211.20" arrivalLane="e0_0" arrivalPos="4800.00" arrivalSpeed="27.98" duration="181.90" routeLength="4984.89" waitingTime="0.00" waitingCount="0" stopTime="0.00" timeLoss="3.77" rerouteNo="0" devices="tripinfo_CAVToC.11 routing_CAVToC.11 ssm_CAVToC.11 toc_CAVToC.11 driverstateCAVToC.11" vType="vehLVOS127" speedFactor="0.78" vaporized=""/>
    <tripinfo id="CVToC.11" depart="31.60" departLane="entry_0" departPos="1.13" departSpeed="28.90" departDelay="3.00" arrival="213.80" arrivalLane="e0_0" arrivalPos="4800.00" arrivalSpeed="32.28" duration="182.20" routeLength="4998.87" waitingTime="0.00" waitingCount="0" stopTime="0.00" timeLoss="42.78" rerouteNo="0" devices="tripinfo_CVToC.11 routing_CVToC.11 ssm_CVToC.11 toc_CVToC.11 driverstateCVToC.11" vType="vehLVOS743" speedFactor="0.99" vaporized=""/>
    <tripinfo id="LV.7" depart="44.30" departLane="entry_0" departPos="10.20" departSpeed="33.61" departDelay="8.10" arrival="214.30" arrivalLane="e0_1" arrivalPos="4800.00" arrivalSpeed="33.52" duration="170.00" routeLength="4989.80" waitingTime="0.00" waitingCount="0" stopTime="0.00" timeLoss="21.44" rerouteNo="0" devices="tripinfo_LV.7 routing_LV.7 ssm_LV.7" vType="vehLVOS690" speedFactor="0.93" vaporized=""/>
    <tripinfo id="CVToC.14" depart="34.20" departLane="entry_0" departPos="6.22" departSpeed="29.33" departDelay="2.40" arrival="215.20" arrivalLane="e0_0" arrivalPos="4800.00" arrivalSpeed="32.79" duration="181.00" routeLength="4993.78" waitingTime="0.00" waitingCount="0" stopTime="0.00" timeLoss="32.48" rerouteNo="0" devices="tripinfo_CVToC.14 routing_CVToC.14 ssm_CVToC.14 toc_CVToC.14 driverstateCVToC.14" vType="vehLVOS328" speedFactor="0.93" vaporized=""/>
    <tripinfo id="CVToC.19" depart="46.80" departLane="entry_0" departPos="7.66" departSpeed="33.10" departDelay="7.10" arrival="215.60" arrivalLane="e0_1" arrivalPos="4800.00" arrivalSpeed="36.26" duration="168.80" routeLength="4992.34" waitingTime="0.00" waitingCount="0" stopTime="0.00" timeLoss="41.67" rerouteNo="0" devices="tripinfo_CVToC.19 routing_CVToC.19 ssm_CVToC.19 toc_CVToC.19 driverstateCVToC.19" vType="vehLVOS795" speedFactor="1.09" vaporized=""/>
    <tripinfo id="CAVToC.12" depart="36.90" departLane="entry_0" departPos="3.92" departSpeed="30.07" departDelay="7.60" arrival="216.00" arrivalLane="e0_0" arrivalPos="4800.00" arrivalSpeed="33.74" duration="179.10" routeLength="4996.08" waitingTime="0.00" waitingCount="0" stopTime="0.00" timeLoss="45.12" rerouteNo="0" devices="tripinfo_CAVToC.12 routing_CAVToC.12 ssm_CAVToC.12 toc_CAVToC.12 driverstateCAVToC.12" vType="vehLVOS78" speedFactor="1.03" vaporized=""/>
    <tripinfo id="CAVToC.16" depart="49.90" departLane="entry_1" departPos="5.25" departSpeed="32.82" departDelay="7.50" arrival="217.50" arrivalLane="e0_1" arrivalPos="4800.00" arrivalSpeed="36.56" duration="167.60" routeLength="4994.75" waitingTime="0.00" waitingCount="0" stopTime="0.00" timeLoss="37.06" rerouteNo="0" devices="tripinfo_CAVToC.16 routing_CAVToC.16 ssm_CAVToC.16 toc_CAVToC.16 driverstateCAVToC.16" vType="vehLVOS921" speedFactor="1.06" vaporized=""/>
    <tripinfo id="CAVToC.13" depart="39.40" departLane="entry_0" departPos="9.39" departSpeed="30.12" departDelay="2.20" arrival="217.60" arrivalLane="e0_0" arrivalPos="4800.00" arrivalSpeed="31.55" duration="178.20" routeLength="4990.61" waitingTime="0.00" waitingCount="0" stopTime="0.00" timeLoss="20.12" rerouteNo="0" devices="tripinfo_CAVToC.13 routing_CAVToC.13 ssm_CAVToC.13 toc_CAVToC.13 driverstateCAVToC.13" vType="vehLVOS11" speedFactor="0.87" vaporized=""/>
    <tripinfo id="CVToC.25" depart="56.40" departLane="entry_1" departPos="123.49" departSpeed="29.91" departDelay="7.80" arrival="218.30" arrivalLane="e0_1" arrivalPos="4800.00" arrivalSpeed="36.65" duration="161.90" routeLength="4876.51" waitingTime="0.00" waitingCount="0" stopTime="0.00" timeLoss="39.61" rerouteNo="0" devices="tripinfo_CVToC.25 routing_CVToC.25 ssm_CVToC.25 toc_CVToC.25 driverstateCVToC.25" vType="vehLVOS13" speedFactor="1.10" vaporized=""/>
    <tripinfo id="CVToC.17" depart="41.60" departLane="entry_0" departPos="0.59" departSpeed="30.62" departDelay="2.80" arrival="218.90" arrivalLane="e0_0" arrivalPos="4800.00" arrivalSpeed="34.33" duration="177.30" routeLength="4999.41" waitingTime="0.00" waitingCount="0" stopTime="0.00" timeLoss="38.33" rerouteNo="0" devices="tripinfo_CVToC.17 routing_CVToC.17 ssm_CVToC.17 toc_CVToC.17 driverstateCVToC.17" vType="vehLVOS292" speedFactor="1.00" vaporized=""/>
    <tripinfo id="CAVToC.15" depart="48.90" departLane="entry_0" departPos="2.37" departSpeed="31.67" departDelay="6.80" arrival="220.00" arrivalLane="e0_0" arrivalPos="4800.00" arrivalSpeed="32.91" duration="171.10" routeLength="4997.63" waitingTime="0.00" waitingCount="0" stopTime="0.00" timeLoss="19.46" rerouteNo="0" devices="tripinfo_CAVToC.15 routing_CAVToC.15 ssm_CAVToC.15 toc_CAVToC.15 driverstateCAVToC.15" vType="vehLVOS489" speedFactor="0.91" vaporized=""/>
    <tripinfo id="CAVToC.18" depart="56.40" departLane="entry_1" departPos="50.03" departSpeed="30.47" departDelay="6.90" arrival="222.40" arrivalLane="e0_1" arrivalPos="4800.00" arrivalSpeed="34.30" duration="166.00" routeLength="4949.97" waitingTime="0.00" waitingCount="0" stopTime="0.00" timeLoss="21.98" rerouteNo="0" devices="tripinfo_CAVToC.18 routing_CAVToC.18 ssm_CAVToC.18 toc_CAVToC.18 driverstateCAVToC.18" vType="vehLVOS935" speedFactor="0.95" vaporized=""/>
    <tripinfo id="CVToC.24" depart="57.40" departLane="entry_1" departPos="7.72" departSpeed="30.83" departDelay="11.30" arrival="224.10" arrivalLane="e0_1" arrivalPos="4800.00" arrivalSpeed="34.46" duration="166.70" routeLength="4992.28" waitingTime="0.00" waitingCount="0" stopTime="0.00" timeLoss="21.88" rerouteNo="0" devices="tripinfo_CVToC.24 routing_CVToC.24 ssm_CVToC.24 toc_CVToC.24 driverstateCVToC.24" vType="vehLVOS437" speedFactor="0.95" vaporized=""/>
    <tripinfo id="CVToC.23" depart="51.50" departLane="entry_0" departPos="20.06" departSpeed="30.72" departDelay="6.30" arrival="224.30" arrivalLane="e0_0" arrivalPos="4800.00" arrivalSpeed="30.68" duration="172.80" routeLength="4979.94" waitingTime="0.00" waitingCount="0" stopTime="0.00" timeLoss="10.69" rerouteNo="0" devices="tripinfo_CVToC.23 routing_CVToC.23 ssm_CVToC.23 toc_CVToC.23 driverstateCVToC.23" vType="vehLVOS249" speedFactor="0.85" vaporized=""/>
    <tripinfo id="CVToC.22" depart="54.20" departLane="entry_0" departPos="14.12" departSpeed="31.03" departDelay="9.10" arrival="225.70" arrivalLane="e0_0" arrivalPos="4800.00" arrivalSpeed="33.18" duration="171.50" routeLength="4985.88" waitingTime="0.00" waitingCount="0" stopTime="0.00" timeLoss="48.14" rerouteNo="0" devices="tripinfo_CVToC.22 routing_CVToC.22 ssm_CVToC.22 toc_CVToC.22 driverstateCVToC.22" vType="vehLVOS901" speedFactor="1.12" vaporized=""/>
    <tripinfo id="CVToC.21" depart="60.00" departLane="entry_1" departPos="2.95" departSpeed="30.92" departDelay="15.00" arrival="226.10" arrivalLane="e0_1" arrivalPos="4800.00" arrivalSpeed="37.43" duration="166.10" routeLength="4997.05" waitingTime="0.00" waitingCount="0" stopTime="0.00" timeLoss="32.65" rerouteNo="0" devices="tripinfo_CVToC.21 routing_CVToC.21 ssm_CVToC.21 toc_CVToC.21 driverstateCVToC.21" vType="vehLVOS236" speedFactor="1.04" vaporized=""/>
    <tripinfo id="LV.10" depart="60.40" departLane="entry_0" departPos="5.38" departSpeed="31.28" departDelay="7.20" arrival="228.40" arrivalLane="e0_0" arrivalPos="4800.00" arrivalSpeed="31.24" duration="168.00" routeLength="4994.62" waitingTime="0.00" waitingCount="0" stopTime="0.00" timeLoss="8.30" rerouteNo="0" devices="tripinfo_LV.10 routing_LV.10 ssm_LV.10" vType="vehLVOS517" speedFactor="0.87" vaporized=""/>
    <tripinfo id="CAVToC.21" depart="65.10" departLane="entry_1" departPos="14.99" departSpeed="29.67" departDelay="10.30" arrival="229.80" arrivalLane="e0_1" arrivalPos="4800.00" arrivalSpeed="35.57" duration="164.70" routeLength="4985.01" waitingTime="0.00" waitingCount="0" stopTime="0.00" timeLoss="24.63" rerouteNo="0" devices="tripinfo_CAVToC.21 routing_CAVToC.21 ssm_CAVToC.21 toc_CAVToC.21 driverstateCAVToC.21" vType="vehLVOS42" speedFactor="0.99" vaporized=""/>
    <tripinfo id="CVToC.27" depart="68.30" departLane="entry_1" departPos="26.93" departSpeed="30.70" departDelay="11.30" arrival="230.70" arrivalLane="e0_1" arrivalPos="4800.00" arrivalSpeed="37.51" duration="162.40" routeLength="4973.07" waitingTime="0.00" waitingCount="0" stopTime="0.00" timeLoss="35.10" rerouteNo="0" devices="tripinfo_CVToC.27 routing_CVToC.27 ssm_CVToC.27 toc_CVToC.27 driverstateCVToC.27" vType="vehLVOS60" speedFactor="1.08" vaporized=""/>
    <tripinfo id="LV.11" depart="62.80" departLane="entry_1" departPos="26.66" departSpeed="30.23" departDelay="8.00" arrival="230.80" arrivalLane="e0_0" arrivalPos="4800.00" arrivalSpeed="30.19" duration="168.00" routeLength="4973.34" waitingTime="0.00" waitingCount="0" stopTime="0.00" timeLoss="3.45" rerouteNo="0" devices="tripinfo_LV.11 routing_LV.11 ssm_LV.11" vType="vehLVOS933" speedFactor="0.84" vaporized=""/>
    <tripinfo id="CAVToC.17" depart="56.90" departLane="entry_0" departPos="16.63" departSpeed="30.45" departDelay="11.40" arrival="232.10" arrivalLane="e0_0" arrivalPos="4800.00" arrivalSpeed="32.33" duration="175.20" routeLength="4983.37" waitingTime="0.00" waitingCount="0" stopTime="0.00" timeLoss="37.06" rerouteNo="0" devices="tripinfo_CAVToC.17 routing_CAVToC.17 ssm_CAVToC.17 toc_CAVToC.17 driverstateCAVToC.17" vType="vehLVOS87" speedFactor="1.00" vaporized=""/>
    <tripinfo id="CVToC.29" depart="70.40" departLane="entry_1" departPos="5.42" departSpeed="31.57" departDelay="11.00" arrival="232.70" arrivalLane="e0_1" arrivalPos="4800.00" arrivalSpeed="38.13" duration="162.30" routeLength="4994.58" waitingTime="0.00" waitingCount="0" stopTime="0.00" timeLoss="31.57" rerouteNo="0" devices="tripinfo_CVToC.29 routing_CVToC.29 ssm_CVToC.29 toc_CVToC.29 driverstateCVToC.29" vType="vehLVOS58" speedFactor="1.06" vaporized=""/>
    <tripinfo id="CAVToC.20" depart="58.90" departLane="entry_0" departPos="0.12" departSpeed="30.15" departDelay="6.50" arrival="233.20" arrivalLane="e0_0" arrivalPos="4800.00" arrivalSpeed="33.19" duration="174.30" routeLength="4999.88" waitingTime="0.00" waitingCount="0" stopTime="0.00" timeLoss="28.17" rerouteNo="0" devices="tripinfo_CAVToC.20 routing_CAVToC.20 ssm_CAVToC.20 toc_CAVToC.20 driverstateCAVToC.20" vType="vehLVOS348" speedFactor="0.95" vaporized=""/>
    <tripinfo id="CVToC.28" depart="73.50" departLane="entry_1" departPos="11.12" departSpeed="29.89" departDelay="14.20" arrival="233.70" arrivalLane="e0_1" arrivalPos="4800.00" arrivalSpeed="36.25" duration="160.20" routeLength="4988.88" waitingTime="0.00" waitingCount="0" stopTime="0.00" timeLoss="22.99" rerouteNo="0" devices="tripinfo_CVToC.28 routing_CVToC.28 ssm_CVToC.28 toc_CVToC.28 driverstateCVToC.28" vType="vehLVOS725" speedFactor="1.01" vaporized=""/>
    <tripinfo id="LV.9" depart="81.00" departLane="entry_1" departPos="2.41" departSpeed="42.17" departDelay="37.40" arrival="235.10" arrivalLane="e0_1" arrivalPos="4800.00" arrivalSpeed="39.15" duration="154.10" routeLength="4997.59" waitingTime="0.00" waitingCount="0" stopTime="0.00" timeLoss="35.57" rerouteNo="0" devices="tripinfo_LV.9 routing_LV.9 ssm_LV.9" vType="vehLVOS963" speedFactor="1.17" vaporized=""/>
    <tripinfo id="LV.14" depart="76.50" departLane="entry_1" departPos="2.89" departSpeed="35.35" departDelay="14.50" arrival="235.80" arrivalLane="e0_0" arrivalPos="4800.00" arrivalSpeed="35.34" duration="159.30" routeLength="4997.11" waitingTime="0.00" waitingCount="0" stopTime="0.00" timeLoss="17.90" rerouteNo="0" devices="tripinfo_LV.14 routing_LV.14 ssm_LV.14" vType="vehLVOS518" speedFactor="0.98" vaporized=""/>