<?xml version="1.0" encoding="UTF-8"?>

<!-- generated on 08/27/20 11:39:21 by Eclipse SUMO Version 1.6.0
<configuration xmlns:xsi="http://www.w3.org/2001/XMLSchema-instance" xsi:noNamespaceSchemaLocation="http://sumo.dlr.de/xsd/sumoConfiguration.xsd">

    <input>
        <net-file value="scenario/UC5_1.net.xml"/>
        <route-files value="scenario/routes_trafficMix_0_trafficDemand_1_driverBehaviour_OS_seed_0.xml"/>
        <additional-files value="scenario/additionalsOutput_trafficMix_0_trafficDemand_1_driverBehaviour_OS_seed_0.xml,scenario/vTypesCAVToC_OS.add.xml,scenario/vTypesCVToC_OS.add.xml,scenario/vTypesLV_OS.add.xml,scenario/shapes.add.xml,scenario/view.add.xml"/>
    </input>

    <output>
        <tripinfo-output value="C:\Users\laborknecht\Aris\workspace\tor-distribution/outputs/simulations/DQN__2020-08-26_20-57-26__20200827-113306/tripinfo_2.xml"/>
    </output>

    <time>
        <step-length value="0.1"/>
    </time>

    <processing>
        <step-method.ballistic value="true"/>
        <ignore-route-errors value="true"/>
        <lanechange.duration value="2.5"/>
    </processing>

    <report>
        <no-step-log value="true"/>
    </report>

    <toc_device>
        <device.toc.ogNewTimeHeadway value="100"/>
        <device.toc.ogNewSpaceHeadway value="5"/>
        <device.toc.ogMaxDecel value="1"/>
        <device.toc.ogChangeRate value="1"/>
    </toc_device>

    <traci_server>
        <remote-port value="56071"/>
    </traci_server>

    <random_number>
        <seed value="1026"/>
    </random_number>

    <gui_only>
        <tracker-interval value="0.1"/>
    </gui_only>

</configuration>
-->

<tripinfos xmlns:xsi="http://www.w3.org/2001/XMLSchema-instance" xsi:noNamespaceSchemaLocation="http://sumo.dlr.de/xsd/tripinfo_file.xsd">
    <tripinfo id="CAVToC.0" depart="2.30" departLane="entry_1" departPos="199.90" departSpeed="37.60" departDelay="0.00" arrival="130.20" arrivalLane="e0_1" arrivalPos="4800.00" arrivalSpeed="37.51" duration="127.90" routeLength="4800.10" waitingTime="0.00" waitingCount="0" stopTime="0.00" timeLoss="0.15" rerouteNo="0" devices="tripinfo_CAVToC.0 routing_CAVToC.0 ssm_CAVToC.0 toc_CAVToC.0 driverstateCAVToC.0" vType="vehLVOS186" speedFactor="1.04" vaporized=""/>
    <tripinfo id="CVToC.1" depart="3.40" departLane="entry_0" departPos="199.90" departSpeed="40.66" departDelay="0.00" arrival="131.20" arrivalLane="e0_0" arrivalPos="4800.00" arrivalSpeed="39.28" duration="127.80" routeLength="4800.10" waitingTime="0.00" waitingCount="0" stopTime="0.00" timeLoss="9.66" rerouteNo="0" devices="tripinfo_CVToC.1 routing_CVToC.1 ssm_CVToC.1 toc_CVToC.1 driverstateCVToC.1" vType="vehLVOS82" speedFactor="1.13" vaporized=""/>
    <tripinfo id="CVToC.4" depart="9.60" departLane="entry_1" departPos="96.16" departSpeed="36.68" departDelay="0.20" arrival="140.40" arrivalLane="e0_0" arrivalPos="4800.00" arrivalSpeed="40.31" duration="130.80" routeLength="4903.84" waitingTime="0.00" waitingCount="0" stopTime="0.00" timeLoss="9.74" rerouteNo="0" devices="tripinfo_CVToC.4 routing_CVToC.4 ssm_CVToC.4 toc_CVToC.4 driverstateCVToC.4" vType="vehLVOS294" speedFactor="1.12" vaporized=""/>
    <tripinfo id="LV.2" depart="11.90" departLane="entry_1" departPos="6.41" departSpeed="45.61" departDelay="1.90" arrival="141.60" arrivalLane="e0_1" arrivalPos="4800.00" arrivalSpeed="45.48" duration="129.70" routeLength="4993.59" waitingTime="0.00" waitingCount="0" stopTime="0.00" timeLoss="20.20" rerouteNo="0" devices="tripinfo_LV.2 routing_LV.2 ssm_LV.2" vType="vehLVOS150" speedFactor="1.26" vaporized=""/>
    <tripinfo id="CVToC.3" depart="4.90" departLane="entry_1" departPos="134.03" departSpeed="32.05" departDelay="0.00" arrival="142.40" arrivalLane="e0_0" arrivalPos="4800.00" arrivalSpeed="36.96" duration="137.50" routeLength="4865.97" waitingTime="0.00" waitingCount="0" stopTime="0.00" timeLoss="5.97" rerouteNo="0" devices="tripinfo_CVToC.3 routing_CVToC.3 ssm_CVToC.3 toc_CVToC.3 driverstateCVToC.3" vType="vehLVOS366" speedFactor="1.03" vaporized=""/>
    <tripinfo id="LV.0" depart="6.70" departLane="entry_1" departPos="71.92" departSpeed="36.64" departDelay="0.00" arrival="144.80" arrivalLane="e0_0" arrivalPos="4800.00" arrivalSpeed="36.63" duration="138.10" routeLength="4928.08" waitingTime="0.00" waitingCount="0" stopTime="0.00" timeLoss="3.53" rerouteNo="0" devices="tripinfo_LV.0 routing_LV.0 ssm_LV.0" vType="vehLVOS214" speedFactor="1.01" vaporized=""/>
    <tripinfo id="CAVToC.4" depart="16.20" departLane="entry_1" departPos="78.84" departSpeed="36.91" departDelay="0.00" arrival="149.60" arrivalLane="e0_1" arrivalPos="4800.00" arrivalSpeed="42.26" duration="133.40" routeLength="4921.16" waitingTime="0.00" waitingCount="0" stopTime="0.00" timeLoss="16.94" rerouteNo="0" devices="tripinfo_CAVToC.4 routing_CAVToC.4 ssm_CAVToC.4 toc_CAVToC.4 driverstateCAVToC.4" vType="vehLVOS392" speedFactor="1.17" vaporized=""/>
    <tripinfo id="LV.3" depart="12.90" departLane="entry_1" departPos="44.05" departSpeed="36.68" departDelay="0.00" arrival="150.20" arrivalLane="e0_0" arrivalPos="4800.00" arrivalSpeed="36.67" duration="137.30" routeLength="4955.95" waitingTime="0.00" waitingCount="0" stopTime="0.00" timeLoss="2.16" rerouteNo="0" devices="tripinfo_LV.3 routing_LV.3 ssm_LV.3" vType="vehLVOS711" speedFactor="1.02" vaporized=""/>
    <tripinfo id="CAVToC.5" depart="16.60" departLane="entry_1" departPos="0.08" departSpeed="36.92" departDelay="0.10" arrival="150.50" arrivalLane="e0_1" arrivalPos="4800.00" arrivalSpeed="42.31" duration="133.90" routeLength="4999.92" waitingTime="0.00" waitingCount="0" stopTime="0.00" timeLoss="15.68" rerouteNo="0" devices="tripinfo_CAVToC.5 routing_CAVToC.5 ssm_CAVToC.5 toc_CAVToC.5 driverstateCAVToC.5" vType="vehLVOS507" speedFactor="1.17" vaporized=""/>
    <tripinfo id="CAVToC.6" depart="19.70" departLane="entry_1" departPos="24.83" departSpeed="36.64" departDelay="0.00" arrival="156.00" arrivalLane="e0_1" arrivalPos="4800.00" arrivalSpeed="40.09" duration="136.30" routeLength="4975.17" waitingTime="0.00" waitingCount="0" stopTime="0.00" timeLoss="12.46" rerouteNo="0" devices="tripinfo_CAVToC.6 routing_CAVToC.6 ssm_CAVToC.6 toc_CAVToC.6 driverstateCAVToC.6" vType="vehLVOS734" speedFactor="1.11" vaporized=""/>
    <tripinfo id="CVToC.8" depart="21.90" departLane="entry_1" departPos="9.33" departSpeed="37.33" departDelay="0.70" arrival="157.00" arrivalLane="e0_1" arrivalPos="4800.00" arrivalSpeed="42.33" duration="135.10" routeLength="4990.67" waitingTime="0.00" waitingCount="0" stopTime="0.00" timeLoss="25.58" rerouteNo="0" devices="tripinfo_CVToC.8 routing_CVToC.8 ssm_CVToC.8 toc_CVToC.8 driverstateCVToC.8" vType="vehLVOS266" speedFactor="1.26" vaporized=""/>
    <tripinfo id="CVToC.0" depart="2.80" departLane="entry_1" departPos="150.81" departSpeed="31.43" departDelay="0.00" arrival="157.30" arrivalLane="e0_0" arrivalPos="4800.00" arrivalSpeed="31.37" duration="154.50" routeLength="4849.19" waitingTime="0.00" waitingCount="0" stopTime="0.00" timeLoss="0.19" rerouteNo="0" devices="tripinfo_CVToC.0 routing_CVToC.0 ssm_CVToC.0 toc_CVToC.0 driverstateCVToC.0" vType="vehLVOS285" speedFactor="0.87" vaporized=""/>
    <tripinfo id="CVToC.2" depart="4.40" departLane="entry_0" departPos="160.40" departSpeed="38.08" departDelay="0.00" arrival="158.50" arrivalLane="e0_0" arrivalPos="4800.00" arrivalSpeed="33.46" duration="154.10" routeLength="4839.60" waitingTime="0.00" waitingCount="0" stopTime="0.00" timeLoss="27.00" rerouteNo="0" devices="tripinfo_CVToC.2 routing_CVToC.2 ssm_CVToC.2 toc_CVToC.2 driverstateCVToC.2" vType="vehLVOS145" speedFactor="1.05" vaporized=""/>
    <tripinfo id="LV.1" depart="7.50" departLane="entry_0" departPos="24.62" departSpeed="38.64" departDelay="0.00" arrival="159.80" arrivalLane="e0_1" arrivalPos="4800.00" arrivalSpeed="38.63" duration="152.30" routeLength="4975.38" waitingTime="0.00" waitingCount="0" stopTime="0.00" timeLoss="23.53" rerouteNo="0" devices="tripinfo_LV.1 routing_LV.1 ssm_LV.1" vType="vehLVOS626" speedFactor="1.07" vaporized=""/>
    <tripinfo id="CAVToC.1" depart="5.20" departLane="entry_0" departPos="100.96" departSpeed="36.79" departDelay="0.00" arrival="160.90" arrivalLane="e0_0" arrivalPos="4800.00" arrivalSpeed="36.45" duration="155.70" routeLength="4899.04" waitingTime="0.00" waitingCount="0" stopTime="0.00" timeLoss="37.29" rerouteNo="0" devices="tripinfo_CAVToC.1 routing_CAVToC.1 ssm_CAVToC.1 toc_CAVToC.1 driverstateCAVToC.1" vType="vehLVOS909" speedFactor="1.15" vaporized=""/>
    <tripinfo id="LV.5" depart="23.30" departLane="entry_1" departPos="16.15" departSpeed="37.00" departDelay="0.20" arrival="162.20" arrivalLane="e0_1" arrivalPos="4800.00" arrivalSpeed="36.98" duration="138.90" routeLength="4983.85" waitingTime="0.00" waitingCount="0" stopTime="0.00" timeLoss="4.22" rerouteNo="0" devices="tripinfo_LV.5 routing_LV.5 ssm_LV.5" vType="vehLVOS671" speedFactor="1.02" vaporized=""/>
    <tripinfo id="CAVToC.3" depart="11.10" departLane="entry_0" departPos="4.71" departSpeed="32.83" departDelay="0.50" arrival="164.70" arrivalLane="e0_1" arrivalPos="4800.00" arrivalSpeed="37.60" duration="153.60" routeLength="4995.29" waitingTime="0.00" waitingCount="0" stopTime="0.00" timeLoss="20.74" rerouteNo="0" devices="tripinfo_CAVToC.3 routing_CAVToC.3 ssm_CAVToC.3 toc_CAVToC.3 driverstateCAVToC.3" vType="vehLVOS164" speedFactor="1.04" vaporized=""/>
    <tripinfo id="CAVToC.2" depart="8.70" departLane="entry_0" departPos="5.36" departSpeed="32.19" departDelay="0.00" arrival="165.90" arrivalLane="e0_0" arrivalPos="4800.00" arrivalSpeed="32.10" duration="157.20" routeLength="4994.64" waitingTime="0.00" waitingCount="0" stopTime="0.00" timeLoss="1.98" rerouteNo="0" devices="tripinfo_CAVToC.2 routing_CAVToC.2 ssm_CAVToC.2 toc_CAVToC.2 driverstateCAVToC.2" vType="vehLVOS297" speedFactor="0.89" vaporized=""/>
    <tripinfo id="LV.4" depart="17.10" departLane="entry_0" departPos="145.17" departSpeed="34.53" departDelay="0.00" arrival="168.40" arrivalLane="e0_0" arrivalPos="4800.00" arrivalSpeed="34.50" duration="151.30" routeLength="4854.83" waitingTime="0.00" waitingCount="0" stopTime="0.00" timeLoss="10.68" rerouteNo="0" devices="tripinfo_LV.4 routing_LV.4 ssm_LV.4" vType="vehLVOS44" speedFactor="0.96" vaporized=""/>
    <tripinfo id="CVToC.5" depart="17.80" departLane="entry_0" departPos="95.92" departSpeed="34.29" departDelay="0.30" arrival="169.90" arrivalLane="e0_0" arrivalPos="4800.00" arrivalSpeed="34.68" duration="152.10" routeLength="4904.08" waitingTime="0.00" waitingCount="0" stopTime="0.00" timeLoss="10.67" rerouteNo="0" devices="tripinfo_CVToC.5 routing_CVToC.5 ssm_CVToC.5 toc_CVToC.5 driverstateCVToC.5" vType="vehLVOS17" speedFactor="0.96" vaporized=""/>
    <tripinfo id="CAVToC.7" depart="25.70" departLane="entry_1" departPos="36.74" departSpeed="33.30" departDelay="0.10" arrival="174.90" arrivalLane="e0_0" arrivalPos="4800.00" arrivalSpeed="33.26" duration="149.20" routeLength="4963.26" waitingTime="0.00" waitingCount="0" stopTime="0.00" timeLoss="0.11" rerouteNo="0" devices="tripinfo_CAVToC.7 routing_CAVToC.7 ssm_CAVToC.7 toc_CAVToC.7 driverstateCAVToC.7" vType="vehLVOS217" speedFactor="0.92" vaporized=""/>
    <tripinfo id="LV.6" depart="28.80" departLane="entry_1" departPos="12.72" departSpeed="38.89" departDelay="3.60" arrival="176.20" arrivalLane="e0_1" arrivalPos="4800.00" arrivalSpeed="36.92" duration="147.40" routeLength="4987.28" waitingTime="0.00" waitingCount="0" stopTime="0.00" timeLoss="19.08" rerouteNo="0" devices="tripinfo_LV.6 routing_LV.6 ssm_LV.6" vType="vehLVOS829" speedFactor="1.08" vaporized=""/>
    <tripinfo id="CVToC.9" depart="23.90" departLane="entry_0" departPos="58.81" departSpeed="32.54" departDelay="0.10" arrival="176.90" arrivalLane="e0_0" arrivalPos="4800.00" arrivalSpeed="39.09" duration="153.00" routeLength="4941.19" waitingTime="0.00" waitingCount="0" stopTime="0.00" timeLoss="26.77" rerouteNo="0" devices="tripinfo_CVToC.9 routing_CVToC.9 ssm_CVToC.9 toc_CVToC.9 driverstateCVToC.9" vType="vehLVOS361" speedFactor="1.08" vaporized=""/>
    <tripinfo id="CAVToC.11" depart="33.50" departLane="entry_1" departPos="118.57" departSpeed="35.53" departDelay="0.00" arrival="177.50" arrivalLane="e0_1" arrivalPos="4800.00" arrivalSpeed="35.52" duration="144.00" routeLength="4881.43" waitingTime="0.00" waitingCount="0" stopTime="0.00" timeLoss="6.54" rerouteNo="0" devices="tripinfo_CAVToC.11 routing_CAVToC.11 ssm_CAVToC.11 toc_CAVToC.11 driverstateCAVToC.11" vType="vehLVOS860" speedFactor="0.98" vaporized=""/>
    <tripinfo id="CVToC.6" depart="18.40" departLane="entry_0" departPos="52.63" departSpeed="30.79" departDelay="0.10" arrival="179.50" arrivalLane="e0_0" arrivalPos="4800.00" arrivalSpeed="30.75" duration="161.10" routeLength="4947.37" waitingTime="0.00" waitingCount="0" stopTime="0.00" timeLoss="0.37" rerouteNo="0" devices="tripinfo_CVToC.6 routing_CVToC.6 ssm_CVToC.6 toc_CVToC.6 driverstateCVToC.6" vType="vehLVOS915" speedFactor="0.85" vaporized=""/>
    <tripinfo id="CVToC.7" depart="20.80" departLane="entry_0" departPos="41.35" departSpeed="31.90" departDelay="0.10" arrival="180.90" arrivalLane="e0_0" arrivalPos="4800.00" arrivalSpeed="34.38" duration="160.10" routeLength="4958.65" waitingTime="0.00" waitingCount="0" stopTime="0.00" timeLoss="39.51" rerouteNo="0" devices="tripinfo_CVToC.7 routing_CVToC.7 ssm_CVToC.7 toc_CVToC.7 driverstateCVToC.7" vType="vehLVOS9" speedFactor="1.14" vaporized=""/>
    <tripinfo id="CAVToC.12" depart="35.80" departLane="entry_1" departPos="126.28" departSpeed="35.22" departDelay="0.00" arrival="180.90" arrivalLane="e0_1" arrivalPos="4800.00" arrivalSpeed="35.17" duration="145.10" routeLength="4873.72" waitingTime="0.00" waitingCount="0" stopTime="0.00" timeLoss="6.71" rerouteNo="0" devices="tripinfo_CAVToC.12 routing_CAVToC.12 ssm_CAVToC.12 toc_CAVToC.12 driverstateCAVToC.12" vType="vehLVOS528" speedFactor="0.98" vaporized=""/>
    <tripinfo id="LV.9" depart="36.20" departLane="entry_1" departPos="34.99" departSpeed="41.31" departDelay="0.00" arrival="181.80" arrivalLane="e0_1" arrivalPos="4800.00" arrivalSpeed="36.01" duration="145.60" routeLength="4965.01" waitingTime="0.00" waitingCount="0" stopTime="0.00" timeLoss="25.36" rerouteNo="0" devices="tripinfo_LV.9 routing_LV.9 ssm_LV.9" vType="vehLVOS316" speedFactor="1.14" vaporized=""/>
    <tripinfo id="CVToC.10" depart="24.80" departLane="entry_0" departPos="7.54" departSpeed="32.97" departDelay="0.20" arrival="182.40" arrivalLane="e0_0" arrivalPos="4800.00" arrivalSpeed="35.10" duration="157.60" routeLength="4992.46" waitingTime="0.00" waitingCount="0" stopTime="0.00" timeLoss="20.32" rerouteNo="0" devices="tripinfo_CVToC.10 routing_CVToC.10 ssm_CVToC.10 toc_CVToC.10 driverstateCVToC.10" vType="vehLVOS788" speedFactor="1.01" vaporized=""/>
    <tripinfo id="CVToC.12" depart="37.80" departLane="entry_1" departPos="8.28" departSpeed="37.14" departDelay="0.40" arrival="183.40" arrivalLane="e0_1" arrivalPos="4800.00" arrivalSpeed="38.30" duration="145.60" routeLength="4991.72" waitingTime="0.00" waitingCount="0" stopTime="0.00" timeLoss="32.10" rerouteNo="0" devices="tripinfo_CVToC.12 routing_CVToC.12 ssm_CVToC.12 toc_CVToC.12 driverstateCVToC.12" vType="vehLVOS349" speedFactor="1.22" vaporized=""/>
    <tripinfo id="CAVToC.8" depart="29.30" departLane="entry_0" departPos="83.07" departSpeed="32.85" departDelay="0.00" arrival="185.00" arrivalLane="e0_0" arrivalPos="4800.00" arrivalSpeed="34.31" duration="155.70" routeLength="4916.93" waitingTime="0.00" waitingCount="0" stopTime="0.00" timeLoss="12.37" rerouteNo="0" devices="tripinfo_CAVToC.8 routing_CAVToC.8 ssm_CAVToC.8 toc_CAVToC.8 driverstateCAVToC.8" vType="vehLVOS131" speedFactor="0.95" vaporized=""/>
    <tripinfo id="CAVToC.14" depart="42.70" departLane="entry_1" departPos="78.18" departSpeed="33.01" departDelay="0.00" arrival="185.40" arrivalLane="e0_1" arrivalPos="4800.00" arrivalSpeed="38.64" duration="142.70" routeLength="4921.82" waitingTime="0.00" waitingCount="0" stopTime="0.00" timeLoss="15.27" rerouteNo="0" devices="tripinfo_CAVToC.14 routing_CAVToC.14 ssm_CAVToC.14 toc_CAVToC.14 driverstateCAVToC.14" vType="vehLVOS844" speedFactor="1.07" vaporized=""/>
    <tripinfo id="CAVToC.9" depart="30.00" departLane="entry_0" departPos="24.67" departSpeed="33.31" departDelay="0.30" arrival="186.50" arrivalLane="e0_0" arrivalPos="4800.00" arrivalSpeed="36.72" duration="156.50" routeLength="4975.33" waitingTime="0.00" waitingCount="0" stopTime="0.00" timeLoss="21.68" rerouteNo="0" devices="tripinfo_CAVToC.9 routing_CAVToC.9 ssm_CAVToC.9 toc_CAVToC.9 driverstateCAVToC.9" vType="vehLVOS43" speedFactor="1.02" vaporized=""/>
    <tripinfo id="CAVToC.10" depart="31.60" departLane="entry_0" departPos="5.06" departSpeed="33.46" departDelay="0.00" arrival="187.90" arrivalLane="e0_0" arrivalPos="4800.00" arrivalSpeed="35.10" duration="156.30" routeLength="4994.94" waitingTime="0.00" waitingCount="0" stopTime="0.00" timeLoss="14.14" rerouteNo="0" devices="tripinfo_CAVToC.10 routing_CAVToC.10 ssm_CAVToC.10 toc_CAVToC.10 driverstateCAVToC.10" vType="vehLVOS775" speedFactor="0.97" vaporized=""/>
    <tripinfo id="CAVToC.15" depart="43.60" departLane="entry_1" departPos="28.09" departSpeed="33.46" departDelay="0.30" arrival="191.70" arrivalLane="e0_1" arrivalPos="4800.00" arrivalSpeed="36.97" duration="148.10" routeLength="4971.91" waitingTime="0.00" waitingCount="0" stopTime="0.00" timeLoss="13.72" rerouteNo="0" devices="tripinfo_CAVToC.15 routing_CAVToC.15 ssm_CAVToC.15 toc_CAVToC.15 driverstateCAVToC.15" vType="vehLVOS491" speedFactor="1.03" vaporized=""/>
    <tripinfo id="LV.11" depart="47.70" departLane="entry_1" departPos="6.41" departSpeed="42.28" departDelay="5.50" arrival="193.10" arrivalLane="e0_1" arrivalPos="4800.00" arrivalSpeed="38.06" duration="145.40" routeLength="4993.59" waitingTime="0.00" waitingCount="0" stopTime="0.00" timeLoss="27.26" rerouteNo="0" devices="tripinfo_LV.11 routing_LV.11 ssm_LV.11" vType="vehLVOS258" speedFactor="1.17" vaporized=""/>
    <tripinfo id="LV.10" depart="38.90" departLane="entry_1" departPos="41.31" departSpeed="32.26" departDelay="0.00" arrival="193.70" arrivalLane="e0_0" arrivalPos="4800.00" arrivalSpeed="32.26" duration="154.80" routeLength="4958.69" waitingTime="0.00" waitingCount="0" stopTime="0.00" timeLoss="1.05" rerouteNo="0" devices="tripinfo_LV.10 routing_LV.10 ssm_LV.10" vType="vehLVOS214" speedFactor="0.89" vaporized=""/>
    <tripinfo id="CVToC.16" depart="50.30" departLane="entry_1" departPos="35.92" departSpeed="36.18" departDelay="0.30" arrival="195.10" arrivalLane="e0_1" arrivalPos="4800.00" arrivalSpeed="36.16" duration="144.80" routeLength="4964.08" waitingTime="0.00" waitingCount="0" stopTime="0.00" timeLoss="7.60" rerouteNo="0" devices="tripinfo_CVToC.16 routing_CVToC.16 ssm_CVToC.16 toc_CVToC.16 driverstateCVToC.16" vType="vehLVOS123" speedFactor="1.00" vaporized=""/>
    <tripinfo id="LV.12" depart="53.70" departLane="entry_1" departPos="84.51" departSpeed="40.90" departDelay="0.00" arrival="196.00" arrivalLane="e0_1" arrivalPos="4800.00" arrivalSpeed="37.65" duration="142.30" routeLength="4915.49" waitingTime="0.00" waitingCount="0" stopTime="0.00" timeLoss="22.04" rerouteNo="0" devices="tripinfo_LV.12 routing_LV.12 ssm_LV.12" vType="vehLVOS383" speedFactor="1.13" vaporized=""/>
    <tripinfo id="CAVToC.18" depart="54.20" departLane="entry_1" departPos="24.73" departSpeed="36.52" departDelay="0.00" arrival="198.00" arrivalLane="e0_1" arrivalPos="4800.00" arrivalSpeed="38.40" duration="143.80" routeLength="4975.27" waitingTime="0.00" waitingCount="0" stopTime="0.00" timeLoss="17.11" rerouteNo="0" devices="tripinfo_CAVToC.18 routing_CAVToC.18 ssm_CAVToC.18 toc_CAVToC.18 driverstateCAVToC.18" vType="vehLVOS654" speedFactor="1.09" vaporized=""/>
    <tripinfo id="LV.7" depart="31.70" departLane="entry_0" departPos="0.81" departSpeed="30.12" departDelay="0.00" arrival="198.40" arrivalLane="e0_0" arrivalPos="4800.00" arrivalSpeed="30.09" duration="166.70" routeLength="4999.19" waitingTime="0.00" waitingCount="0" stopTime="0.00" timeLoss="0.68" rerouteNo="0" devices="tripinfo_LV.7 routing_LV.7 ssm_LV.7" vType="vehLVOS909" speedFactor="0.83" vaporized=""/>
    <tripinfo id="CAVToC.19" depart="55.60" departLane="entry_1" departPos="1.39" departSpeed="36.34" departDelay="0.50" arrival="199.10" arrivalLane="e0_1" arrivalPos="4800.00" arrivalSpeed="36.67" duration="143.50" routeLength="4998.61" waitingTime="0.00" waitingCount="0" stopTime="0.00" timeLoss="7.52" rerouteNo="0" devices="tripinfo_CAVToC.19 routing_CAVToC.19 ssm_CAVToC.19 toc_CAVToC.19 driverstateCAVToC.19" vType="vehLVOS726" speedFactor="1.02" vaporized=""/>
    <tripinfo id="CVToC.11" depart="37.40" departLane="entry_0" departPos="41.95" departSpeed="30.71" departDelay="0.30" arrival="200.20" arrivalLane="e0_1" arrivalPos="4800.00" arrivalSpeed="37.94" duration="162.80" routeLength="4958.05" waitingTime="0.00" waitingCount="0" stopTime="0.00" timeLoss="39.90" rerouteNo="0" devices="tripinfo_CVToC.11 routing_CVToC.11 ssm_CVToC.11 toc_CVToC.11 driverstateCVToC.11" vType="vehLVOS516" speedFactor="1.12" vaporized=""/>
    <tripinfo id="LV.8" depart="34.20" departLane="entry_0" departPos="38.08" departSpeed="29.85" departDelay="0.00" arrival="201.00" arrivalLane="e0_0" arrivalPos="4800.00" arrivalSpeed="29.83" duration="166.80" routeLength="4961.92" waitingTime="0.00" waitingCount="0" stopTime="0.00" timeLoss="0.55" rerouteNo="0" devices="tripinfo_LV.8 routing_LV.8 ssm_LV.8" vType="vehLVOS366" speedFactor="0.83" vaporized=""/>
    <tripinfo id="CAVToC.13" depart="39.20" departLane="entry_0" departPos="18.95" departSpeed="31.20" departDelay="0.00" arrival="202.10" arrivalLane="e0_0" arrivalPos="4800.00" arrivalSpeed="32.85" duration="162.90" routeLength="4981.05" waitingTime="0.00" waitingCount="0" stopTime="0.00" timeLoss="22.41" rerouteNo="0" devices="tripinfo_CAVToC.13 routing_CAVToC.13 ssm_CAVToC.13 toc_CAVToC.13 driverstateCAVToC.13" vType="vehLVOS512" speedFactor="0.98" vaporized=""/>
    <tripinfo id="CVToC.13" depart="42.60" departLane="entry_0" departPos="43.56" departSpeed="31.65" departDelay="0.00" arrival="205.60" arrivalLane="e0_0" arrivalPos="4800.00" arrivalSpeed="36.41" duration="163.00" routeLength="4956.44" waitingTime="0.00" waitingCount="0" stopTime="0.00" timeLoss="28.24" rerouteNo="0" devices="tripinfo_CVToC.13 routing_CVToC.13 ssm_CVToC.13 toc_CVToC.13 driverstateCVToC.13" vType="vehLVOS852" speedFactor="1.02" vaporized=""/>
    <tripinfo id="CAVToC.20" depart="57.90" departLane="entry_1" departPos="14.70" departSpeed="33.79" departDelay="0.10" arrival="206.60" arrivalLane="e0_1" arrivalPos="4800.00" arrivalSpeed="33.63" duration="148.70" routeLength="4985.30" waitingTime="0.00" waitingCount="0" stopTime="0.00" timeLoss="1.16" rerouteNo="0" devices="tripinfo_CAVToC.20 routing_CAVToC.20 ssm_CAVToC.20 toc_CAVToC.20 driverstateCAVToC.20" vType="vehLVOS980" speedFactor="0.94" vaporized=""/>
    <tripinfo id="CAVToC.21" depart="60.30" departLane="entry_1" departPos="2.53" departSpeed="34.78" departDelay="2.40" arrival="208.70" arrivalLane="e0_1" arrivalPos="4800.00" arrivalSpeed="36.44" duration="148.40" routeLength="4997.47" waitingTime="0.00" waitingCount="0" stopTime="0.00" timeLoss="30.45" rerouteNo="0" devices="tripinfo_CAVToC.21 routing_CAVToC.21 ssm_CAVToC.21 toc_CAVToC.21 driverstateCAVToC.21" vType="vehLVOS62" speedFactor="1.17" vaporized=""/>
    <tripinfo id="CVToC.14" depart="44.60" departLane="entry_0" departPos="37.04" departSpeed="31.39" departDelay="0.30" arrival="209.10" arrivalLane="e0_0" arrivalPos="4800.00" arrivalSpeed="31.38" duration="164.50" routeLength="4962.96" waitingTime="0.00" waitingCount="0" stopTime="0.00" timeLoss="6.35" rerouteNo="0" devices="tripinfo_CVToC.14 routing_CVToC.14 ssm_CVToC.14 toc_CVToC.14 driverstateCVToC.14" vType="vehLVOS883" speedFactor="0.87" vaporized=""/>
    <tripinfo id="CAVToC.23" depart="62.50" departLane="entry_1" departPos="1.39" departSpeed="34.86" departDelay="0.10" arrival="210.10" arrivalLane="e0_1" arrivalPos="4800.00" arrivalSpeed="35.79" duration="147.60" routeLength="4998.61" waitingTime="0.00" waitingCount="0" stopTime="0.00" timeLoss="7.99" rerouteNo="0" devices="tripinfo_CAVToC.23 routing_CAVToC.23 ssm_CAVToC.23 toc_CAVToC.23 driverstateCAVToC.23" vType="vehLVOS346" speedFactor="0.99" vaporized=""/>
    <tripinfo id="CAVToC.16" depart="45.80" departLane="entry_0" departPos="3.00" departSpeed="31.64" departDelay="0.00" arrival="210.60" arrivalLane="e0_0" arrivalPos="4800.00" arrivalSpeed="32.76" duration="164.80" routeLength="4997.00" waitingTime="0.00" waitingCount="0" stopTime="0.00" timeLoss="12.59" rerouteNo="0" devices="tripinfo_CAVToC.16 routing_CAVToC.16 ssm_CAVToC.16 toc_CAVToC.16 driverstateCAVToC.16" vType="vehLVOS255" speedFactor="0.91" vaporized=""/>
    <tripinfo id="LV.15" depart="66.30" departLane="entry_1" departPos="81.10" departSpeed="35.17" departDelay="0.00" arrival="211.50" arrivalLane="e0_1" arrivalPos="4800.00" arrivalSpeed="35.17" duration="145.20" routeLength="4918.90" waitingTime="0.00" waitingCount="0" stopTime="0.00" timeLoss="5.35" rerouteNo="0" devices="tripinfo_LV.15 routing_LV.15 ssm_LV.15" vType="vehLVOS541" speedFactor="0.97" vaporized=""/>
    <tripinfo id="CVToC.15" depart="48.00" departLane="entry_0" departPos="0.51" departSpeed="31.71" departDelay="0.90" arrival="212.00" arrivalLane="e0_0" arrivalPos="4800.00" arrivalSpeed="32.75" duration="164.00" routeLength="4999.49" waitingTime="0.00" waitingCount="0" stopTime="0.00" timeLoss="11.42" rerouteNo="0" devices="tripinfo_CVToC.15 routing_CVToC.15 ssm_CVToC.15 toc_CVToC.15 driverstateCVToC.15" vType="vehLVOS961" speedFactor="0.91" vaporized=""/>
    <tripinfo id="CAVToC.17" depart="51.00" departLane="entry_0" departPos="21.00" departSpeed="31.80" departDelay="0.00" arrival="214.20" arrivalLane="e0_0" arrivalPos="4800.00" arrivalSpeed="34.41" duration="163.20" routeLength="4979.00" waitingTime="0.00" waitingCount="0" stopTime="0.00" timeLoss="18.50" rerouteNo="0" devices="tripinfo_CAVToC.17 routing_CAVToC.17 ssm_CAVToC.17 toc_CAVToC.17 driverstateCAVToC.17" vType="vehLVOS89" speedFactor="0.95" vaporized=""/>
    <tripinfo id="CVToC.20" depart="71.40" departLane="entry_1" departPos="185.99" departSpeed="33.45" departDelay="0.10" arrival="216.30" arrivalLane="e0_0" arrivalPos="4800.00" arrivalSpeed="33.45" duration="144.90" routeLength="4814.01" waitingTime="0.00" waitingCount="0" stopTime="0.00" timeLoss="0.90" rerouteNo="0" devices="tripinfo_CVToC.20 routing_CVToC.20 ssm_CVToC.20 toc_CVToC.20 driverstateCVToC.20" vType="vehLVOS756" speedFactor="0.93" vaporized=""/>
    <tripinfo id="CAVToC.24" depart="72.40" departLane="entry_1" departPos="135.10" departSpeed="34.02" departDelay="0.00" arrival="218.00" arrivalLane="e0_1" arrivalPos="4800.00" arrivalSpeed="37.81" duration="145.60" routeLength="4864.90" waitingTime="0.00" waitingCount="0" stopTime="0.00" timeLoss="17.18" rerouteNo="0" devices="tripinfo_CAVToC.24 routing_CAVToC.24 ssm_CAVToC.24 toc_CAVToC.24 driverstateCAVToC.24" vType="vehLVOS302" speedFactor="1.05" vaporized=""/>
    <tripinfo id="LV.17" depart="69.30" departLane="entry_0" departPos="63.94" departSpeed="36.26" departDelay="0.00" arrival="219.00" arrivalLane="e0_1" arrivalPos="4800.00" arrivalSpeed="36.12" duration="149.70" routeLength="4936.06" waitingTime="0.00" waitingCount="0" stopTime="0.00" timeLoss="13.57" rerouteNo="0" devices="tripinfo_LV.17 routing_LV.17 ssm_LV.17" vType="vehLVOS178" speedFactor="1.00" vaporized=""/>
    <tripinfo id="CVToC.22" depart="75.20" departLane="entry_1" departPos="147.13" departSpeed="34.56" departDelay="0.00" arrival="220.40" arrivalLane="e0_1" arrivalPos="4800.00" arrivalSpeed="36.71" duration="145.20" routeLength="4852.87" waitingTime="0.00" waitingCount="0" stopTime="0.00" timeLoss="25.59" rerouteNo="0" devices="tripinfo_CVToC.22 routing_CVToC.22 ssm_CVToC.22 toc_CVToC.22 driverstateCVToC.22" vType="vehLVOS994" speedFactor="1.12" vaporized=""/>
    <tripinfo id="CVToC.21" depart="74.60" departLane="entry_0" departPos="1.55" departSpeed="34.44" departDelay="0.00" arrival="221.20" arrivalLane="e0_0" arrivalPos="4800.00" arrivalSpeed="37.68" duration="146.60" routeLength="4998.45" waitingTime="0.00" waitingCount="0" stopTime="0.00" timeLoss="16.73" rerouteNo="0" devices="tripinfo_CVToC.21 routing_CVToC.21 ssm_CVToC.21 toc_CVToC.21 driverstateCVToC.21" vType="vehLVOS84" speedFactor="1.07" vaporized=""/>
    <tripinfo id="CAVToC.27" depart="80.50" departLane="entry_1" departPos="120.75" departSpeed="35.17" departDelay="0.10" arrival="223.30" arrivalLane="e0_1" arrivalPos="4800.00" arrivalSpeed="39.40" duration="142.80" routeLength="4879.25" waitingTime="0.00" waitingCount="0" stopTime="0.00" timeLoss="18.98" rerouteNo="0" devices="tripinfo_CAVToC.27 routing_CAVToC.27 ssm_CAVToC.27 toc_CAVToC.27 driverstateCAVToC.27" vType="vehLVOS895" speedFactor="1.09" vaporized=""/>
    <tripinfo id="LV.13" depart="54.20" departLane="entry_0" departPos="104.31" departSpeed="28.90" departDelay="0.00" arrival="225.00" arrivalLane="e0_0" arrivalPos="4800.00" arrivalSpeed="28.90" duration="170.80" routeLength="4895.69" waitingTime="0.00" waitingCount="0" stopTime="0.00" timeLoss="1.34" rerouteNo="0" devices="tripinfo_LV.13 routing_LV.13 ssm_LV.13" vType="vehLVOS693" speedFactor="0.80" vaporized=""/>
    <tripinfo id="LV.20" depart="81.50" departLane="entry_1" departPos="40.60" departSpeed="40.95" departDelay="0.00" arrival="225.10" arrivalLane="e0_1" arrivalPos="4800.00" arrivalSpeed="40.80" duration="143.60" routeLength="4959.40" waitingTime="0.00" waitingCount="0" stopTime="0.00" timeLoss="22.47" rerouteNo="0" devices="tripinfo_LV.20 routing_LV.20 ssm_LV.20" vType="vehLVOS239" speedFactor="1.13" vaporized=""/>