<?xml version="1.0" encoding="UTF-8"?>

<!-- generated on 08/27/20 11:56:44 by Eclipse SUMO Version 1.6.0
<configuration xmlns:xsi="http://www.w3.org/2001/XMLSchema-instance" xsi:noNamespaceSchemaLocation="http://sumo.dlr.de/xsd/sumoConfiguration.xsd">

    <input>
        <net-file value="scenario/UC5_1.net.xml"/>
        <route-files value="scenario/routes_trafficMix_0_trafficDemand_1_driverBehaviour_OS_seed_0.xml"/>
        <additional-files value="scenario/additionalsOutput_trafficMix_0_trafficDemand_1_driverBehaviour_OS_seed_0.xml,scenario/vTypesCAVToC_OS.add.xml,scenario/vTypesCVToC_OS.add.xml,scenario/vTypesLV_OS.add.xml,scenario/shapes.add.xml,scenario/view.add.xml"/>
    </input>

    <output>
        <tripinfo-output value="C:\Users\laborknecht\Aris\workspace\tor-distribution/outputs/simulations/DQN__2020-08-26_20-57-26__20200827-113306/tripinfo_5.xml"/>
    </output>

    <time>
        <step-length value="0.1"/>
    </time>

    <processing>
        <step-method.ballistic value="true"/>
        <ignore-route-errors value="true"/>
        <lanechange.duration value="2.5"/>
    </processing>

    <report>
        <no-step-log value="true"/>
    </report>

    <toc_device>
        <device.toc.ogNewTimeHeadway value="100"/>
        <device.toc.ogNewSpaceHeadway value="5"/>
        <device.toc.ogMaxDecel value="1"/>
        <device.toc.ogChangeRate value="1"/>
    </toc_device>

    <traci_server>
        <remote-port value="56273"/>
    </traci_server>

    <random_number>
        <seed value="1029"/>
    </random_number>

    <gui_only>
        <tracker-interval value="0.1"/>
    </gui_only>

</configuration>
-->

<tripinfos xmlns:xsi="http://www.w3.org/2001/XMLSchema-instance" xsi:noNamespaceSchemaLocation="http://sumo.dlr.de/xsd/tripinfo_file.xsd">
    <tripinfo id="CVToC.0" depart="6.40" departLane="entry_0" departPos="199.90" departSpeed="40.78" departDelay="0.00" arrival="124.30" arrivalLane="e0_0" arrivalPos="4800.00" arrivalSpeed="40.67" duration="117.90" routeLength="4800.10" waitingTime="0.00" waitingCount="0" stopTime="0.00" timeLoss="0.21" rerouteNo="0" devices="tripinfo_CVToC.0 routing_CVToC.0 ssm_CVToC.0 toc_CVToC.0 driverstateCVToC.0" vType="vehLVOS899" speedFactor="1.13" vaporized=""/>
    <tripinfo id="CVToC.1" depart="7.60" departLane="entry_1" departPos="199.90" departSpeed="33.37" departDelay="0.00" arrival="151.70" arrivalLane="e0_1" arrivalPos="4800.00" arrivalSpeed="33.27" duration="144.10" routeLength="4800.10" waitingTime="0.00" waitingCount="0" stopTime="0.00" timeLoss="0.26" rerouteNo="0" devices="tripinfo_CVToC.1 routing_CVToC.1 ssm_CVToC.1 toc_CVToC.1 driverstateCVToC.1" vType="vehLVOS940" speedFactor="0.92" vaporized=""/>
    <tripinfo id="CVToC.2" depart="8.10" departLane="entry_0" departPos="192.80" departSpeed="36.48" departDelay="0.00" arrival="152.40" arrivalLane="e0_0" arrivalPos="4800.00" arrivalSpeed="34.46" duration="144.30" routeLength="4807.20" waitingTime="0.00" waitingCount="0" stopTime="0.00" timeLoss="12.45" rerouteNo="0" devices="tripinfo_CVToC.2 routing_CVToC.2 ssm_CVToC.2 toc_CVToC.2 driverstateCVToC.2" vType="vehLVOS335" speedFactor="1.01" vaporized=""/>
    <tripinfo id="CVToC.3" depart="11.40" departLane="entry_1" departPos="199.90" departSpeed="35.18" departDelay="0.00" arrival="152.70" arrivalLane="e0_1" arrivalPos="4800.00" arrivalSpeed="34.42" duration="141.30" routeLength="4800.10" waitingTime="0.00" waitingCount="0" stopTime="0.00" timeLoss="4.75" rerouteNo="0" devices="tripinfo_CVToC.3 routing_CVToC.3 ssm_CVToC.3 toc_CVToC.3 driverstateCVToC.3" vType="vehLVOS495" speedFactor="0.97" vaporized=""/>
    <tripinfo id="CVToC.4" depart="11.60" departLane="entry_0" departPos="199.90" departSpeed="34.89" departDelay="0.00" arrival="153.30" arrivalLane="e0_0" arrivalPos="4800.00" arrivalSpeed="34.87" duration="141.70" routeLength="4800.10" waitingTime="0.00" waitingCount="0" stopTime="0.00" timeLoss="4.09" rerouteNo="0" devices="tripinfo_CVToC.4 routing_CVToC.4 ssm_CVToC.4 toc_CVToC.4 driverstateCVToC.4" vType="vehLVOS660" speedFactor="0.97" vaporized=""/>
    <tripinfo id="CAVToC.1" depart="14.70" departLane="entry_1" departPos="199.90" departSpeed="36.51" departDelay="0.00" arrival="153.80" arrivalLane="e0_1" arrivalPos="4800.00" arrivalSpeed="35.38" duration="139.10" routeLength="4800.10" waitingTime="0.00" waitingCount="0" stopTime="0.00" timeLoss="16.50" rerouteNo="0" devices="tripinfo_CAVToC.1 routing_CAVToC.1 ssm_CAVToC.1 toc_CAVToC.1 driverstateCAVToC.1" vType="vehLVOS358" speedFactor="1.08" vaporized=""/>
    <tripinfo id="CAVToC.0" depart="11.90" departLane="entry_0" departPos="138.90" departSpeed="35.02" departDelay="0.00" arrival="155.80" arrivalLane="e0_0" arrivalPos="4800.00" arrivalSpeed="35.14" duration="143.90" routeLength="4861.10" waitingTime="0.00" waitingCount="0" stopTime="0.00" timeLoss="5.69" rerouteNo="0" devices="tripinfo_CAVToC.0 routing_CAVToC.0 ssm_CAVToC.0 toc_CAVToC.0 driverstateCAVToC.0" vType="vehLVOS675" speedFactor="0.97" vaporized=""/>
    <tripinfo id="CVToC.5" depart="12.80" departLane="entry_0" departPos="99.57" departSpeed="34.90" departDelay="0.00" arrival="157.00" arrivalLane="e0_0" arrivalPos="4800.00" arrivalSpeed="34.87" duration="144.20" routeLength="4900.43" waitingTime="0.00" waitingCount="0" stopTime="0.00" timeLoss="3.70" rerouteNo="0" devices="tripinfo_CVToC.5 routing_CVToC.5 ssm_CVToC.5 toc_CVToC.5 driverstateCVToC.5" vType="vehLVOS939" speedFactor="0.97" vaporized=""/>
    <tripinfo id="CAVToC.3" depart="15.60" departLane="entry_1" departPos="157.85" departSpeed="34.09" departDelay="0.00" arrival="157.90" arrivalLane="e0_1" arrivalPos="4800.00" arrivalSpeed="34.06" duration="142.30" routeLength="4842.15" waitingTime="0.00" waitingCount="0" stopTime="0.00" timeLoss="0.26" rerouteNo="0" devices="tripinfo_CAVToC.3 routing_CAVToC.3 ssm_CAVToC.3 toc_CAVToC.3 driverstateCAVToC.3" vType="vehLVOS705" speedFactor="0.94" vaporized=""/>
    <tripinfo id="LV.0" depart="16.80" departLane="entry_1" departPos="37.60" departSpeed="43.56" departDelay="0.00" arrival="159.40" arrivalLane="e0_1" arrivalPos="4800.00" arrivalSpeed="36.25" duration="142.60" routeLength="4962.40" waitingTime="0.00" waitingCount="0" stopTime="0.00" timeLoss="28.67" rerouteNo="0" devices="tripinfo_LV.0 routing_LV.0 ssm_LV.0" vType="vehLVOS518" speedFactor="1.21" vaporized=""/>
    <tripinfo id="CAVToC.2" depart="15.00" departLane="entry_0" departPos="86.03" departSpeed="35.69" departDelay="0.00" arrival="160.60" arrivalLane="e0_0" arrivalPos="4800.00" arrivalSpeed="38.20" duration="145.60" routeLength="4913.97" waitingTime="0.00" waitingCount="0" stopTime="0.00" timeLoss="27.31" rerouteNo="0" devices="tripinfo_CAVToC.2 routing_CAVToC.2 ssm_CAVToC.2 toc_CAVToC.2 driverstateCAVToC.2" vType="vehLVOS879" speedFactor="1.15" vaporized=""/>
    <tripinfo id="CAVToC.4" depart="17.20" departLane="entry_0" departPos="94.89" departSpeed="33.23" departDelay="0.00" arrival="166.10" arrivalLane="e0_0" arrivalPos="4800.00" arrivalSpeed="33.20" duration="148.90" routeLength="4905.11" waitingTime="0.00" waitingCount="0" stopTime="0.00" timeLoss="1.30" rerouteNo="0" devices="tripinfo_CAVToC.4 routing_CAVToC.4 ssm_CAVToC.4 toc_CAVToC.4 driverstateCAVToC.4" vType="vehLVOS162" speedFactor="0.92" vaporized=""/>
    <tripinfo id="CAVToC.6" depart="21.70" departLane="entry_1" departPos="51.33" departSpeed="29.85" departDelay="0.00" arrival="170.90" arrivalLane="e0_1" arrivalPos="4800.00" arrivalSpeed="39.01" duration="149.20" routeLength="4948.67" waitingTime="0.00" waitingCount="0" stopTime="0.00" timeLoss="22.28" rerouteNo="0" devices="tripinfo_CAVToC.6 routing_CAVToC.6 ssm_CAVToC.6 toc_CAVToC.6 driverstateCAVToC.6" vType="vehLVOS533" speedFactor="1.08" vaporized=""/>
    <tripinfo id="LV.3" depart="22.60" departLane="entry_1" departPos="20.77" departSpeed="33.01" departDelay="0.00" arrival="184.80" arrivalLane="e0_0" arrivalPos="4800.00" arrivalSpeed="32.97" duration="162.20" routeLength="4979.23" waitingTime="0.00" waitingCount="0" stopTime="0.00" timeLoss="11.29" rerouteNo="0" devices="tripinfo_LV.3 routing_LV.3 ssm_LV.3" vType="vehLVOS870" speedFactor="0.91" vaporized=""/>
    <tripinfo id="CAVToC.8" depart="27.20" departLane="entry_1" departPos="94.41" departSpeed="30.74" departDelay="0.00" arrival="187.70" arrivalLane="e0_1" arrivalPos="4800.00" arrivalSpeed="33.11" duration="160.50" routeLength="4905.59" waitingTime="0.00" waitingCount="0" stopTime="0.00" timeLoss="12.48" rerouteNo="0" devices="tripinfo_CAVToC.8 routing_CAVToC.8 ssm_CAVToC.8 toc_CAVToC.8 driverstateCAVToC.8" vType="vehLVOS471" speedFactor="0.92" vaporized=""/>
    <tripinfo id="CVToC.6" depart="23.20" departLane="entry_0" departPos="48.22" departSpeed="29.65" departDelay="0.10" arrival="191.90" arrivalLane="e0_0" arrivalPos="4800.00" arrivalSpeed="32.34" duration="168.70" routeLength="4951.78" waitingTime="0.00" waitingCount="0" stopTime="0.00" timeLoss="15.95" rerouteNo="0" devices="tripinfo_CVToC.6 routing_CVToC.6 ssm_CVToC.6 toc_CVToC.6 driverstateCVToC.6" vType="vehLVOS168" speedFactor="0.90" vaporized=""/>
    <tripinfo id="CAVToC.9" depart="28.90" departLane="entry_1" departPos="65.45" departSpeed="31.10" departDelay="0.00" arrival="192.00" arrivalLane="e0_1" arrivalPos="4800.00" arrivalSpeed="38.46" duration="163.10" routeLength="4934.55" waitingTime="0.00" waitingCount="0" stopTime="0.00" timeLoss="34.82" rerouteNo="0" devices="tripinfo_CAVToC.9 routing_CAVToC.9 ssm_CAVToC.9 toc_CAVToC.9 driverstateCAVToC.9" vType="vehLVOS750" speedFactor="1.07" vaporized=""/>
    <tripinfo id="LV.2" depart="20.40" departLane="entry_1" departPos="101.90" departSpeed="29.31" departDelay="0.00" arrival="193.90" arrivalLane="e0_0" arrivalPos="4800.00" arrivalSpeed="29.28" duration="173.50" routeLength="4898.10" waitingTime="0.00" waitingCount="0" stopTime="0.00" timeLoss="6.29" rerouteNo="0" devices="tripinfo_LV.2 routing_LV.2 ssm_LV.2" vType="vehLVOS419" speedFactor="0.81" vaporized=""/>
    <tripinfo id="CVToC.9" depart="29.50" departLane="entry_1" departPos="9.52" departSpeed="31.40" departDelay="0.10" arrival="196.00" arrivalLane="e0_1" arrivalPos="4800.00" arrivalSpeed="33.84" duration="166.50" routeLength="4990.48" waitingTime="0.00" waitingCount="0" stopTime="0.00" timeLoss="19.03" rerouteNo="0" devices="tripinfo_CVToC.9 routing_CVToC.9 ssm_CVToC.9 toc_CVToC.9 driverstateCVToC.9" vType="vehLVOS158" speedFactor="0.94" vaporized=""/>
    <tripinfo id="CVToC.7" depart="24.50" departLane="entry_0" departPos="0.06" departSpeed="29.82" departDelay="0.00" arrival="199.20" arrivalLane="e0_1" arrivalPos="4800.00" arrivalSpeed="39.24" duration="174.70" routeLength="4999.94" waitingTime="0.00" waitingCount="0" stopTime="0.00" timeLoss="53.09" rerouteNo="0" devices="tripinfo_CVToC.7 routing_CVToC.7 ssm_CVToC.7 toc_CVToC.7 driverstateCVToC.7" vType="vehLVOS534" speedFactor="1.14" vaporized=""/>
    <tripinfo id="CVToC.8" depart="27.70" departLane="entry_0" departPos="10.83" departSpeed="28.24" departDelay="0.00" arrival="200.60" arrivalLane="e0_0" arrivalPos="4800.00" arrivalSpeed="36.76" duration="172.90" routeLength="4989.17" waitingTime="0.00" waitingCount="0" stopTime="0.00" timeLoss="37.68" rerouteNo="0" devices="tripinfo_CVToC.8 routing_CVToC.8 ssm_CVToC.8 toc_CVToC.8 driverstateCVToC.8" vType="vehLVOS255" speedFactor="1.02" vaporized=""/>
    <tripinfo id="CAVToC.11" depart="31.30" departLane="entry_1" departPos="3.02" departSpeed="29.60" departDelay="0.70" arrival="210.10" arrivalLane="e0_0" arrivalPos="4800.00" arrivalSpeed="29.57" duration="178.80" routeLength="4996.98" waitingTime="0.00" waitingCount="0" stopTime="0.00" timeLoss="9.95" rerouteNo="0" devices="tripinfo_CAVToC.11 routing_CAVToC.11 ssm_CAVToC.11 toc_CAVToC.11 driverstateCAVToC.11" vType="vehLVOS476" speedFactor="0.82" vaporized=""/>
    <tripinfo id="CVToC.11" depart="34.30" departLane="entry_1" departPos="1.70" departSpeed="30.89" departDelay="2.10" arrival="212.00" arrivalLane="e0_1" arrivalPos="4800.00" arrivalSpeed="40.36" duration="177.70" routeLength="4998.30" waitingTime="0.00" waitingCount="0" stopTime="0.00" timeLoss="56.80" rerouteNo="0" devices="tripinfo_CVToC.11 routing_CVToC.11 ssm_CVToC.11 toc_CVToC.11 driverstateCVToC.11" vType="vehLVOS162" speedFactor="1.15" vaporized=""/>
    <tripinfo id="LV.1" depart="18.90" departLane="entry_1" departPos="119.70" departSpeed="25.27" departDelay="0.00" arrival="212.30" arrivalLane="e0_0" arrivalPos="4800.00" arrivalSpeed="25.27" duration="193.40" routeLength="4880.30" waitingTime="0.00" waitingCount="0" stopTime="0.00" timeLoss="0.18" rerouteNo="0" devices="tripinfo_LV.1 routing_LV.1 ssm_LV.1" vType="vehLVOS909" speedFactor="0.70" vaporized=""/>
    <tripinfo id="CVToC.12" depart="37.20" departLane="entry_1" departPos="14.12" departSpeed="31.23" departDelay="3.00" arrival="213.30" arrivalLane="e0_1" arrivalPos="4800.00" arrivalSpeed="35.63" duration="176.10" routeLength="4985.88" waitingTime="0.00" waitingCount="0" stopTime="0.00" timeLoss="36.14" rerouteNo="0" devices="tripinfo_CVToC.12 routing_CVToC.12 ssm_CVToC.12 toc_CVToC.12 driverstateCVToC.12" vType="vehLVOS297" speedFactor="0.99" vaporized=""/>
    <tripinfo id="CAVToC.5" depart="20.90" departLane="entry_0" departPos="143.67" departSpeed="31.73" departDelay="0.00" arrival="213.60" arrivalLane="e0_0" arrivalPos="4800.00" arrivalSpeed="27.01" duration="192.70" routeLength="4856.33" waitingTime="0.00" waitingCount="0" stopTime="0.00" timeLoss="43.43" rerouteNo="0" devices="tripinfo_CAVToC.5 routing_CAVToC.5 ssm_CAVToC.5 toc_CAVToC.5 driverstateCAVToC.5" vType="vehLVOS907" speedFactor="0.90" vaporized=""/>
    <tripinfo id="CAVToC.7" depart="21.90" departLane="entry_0" departPos="79.54" departSpeed="30.71" departDelay="0.00" arrival="215.80" arrivalLane="e0_0" arrivalPos="4800.00" arrivalSpeed="27.56" duration="193.90" routeLength="4920.46" waitingTime="0.00" waitingCount="0" stopTime="0.00" timeLoss="80.62" rerouteNo="0" devices="tripinfo_CAVToC.7 routing_CAVToC.7 ssm_CAVToC.7 toc_CAVToC.7 driverstateCAVToC.7" vType="vehLVOS224" speedFactor="1.20" vaporized=""/>
    <tripinfo id="CAVToC.14" depart="42.30" departLane="entry_1" departPos="18.35" departSpeed="25.62" departDelay="5.80" arrival="216.10" arrivalLane="e0_1" arrivalPos="4800.00" arrivalSpeed="34.94" duration="173.80" routeLength="4981.65" waitingTime="0.00" waitingCount="0" stopTime="0.00" timeLoss="31.20" rerouteNo="0" devices="tripinfo_CAVToC.14 routing_CAVToC.14 ssm_CAVToC.14 toc_CAVToC.14 driverstateCAVToC.14" vType="vehLVOS903" speedFactor="0.97" vaporized=""/>
    <tripinfo id="CAVToC.10" depart="30.50" departLane="entry_0" departPos="0.11" departSpeed="28.39" departDelay="0.70" arrival="217.60" arrivalLane="e0_0" arrivalPos="4800.00" arrivalSpeed="28.74" duration="187.10" routeLength="4999.89" waitingTime="0.00" waitingCount="0" stopTime="0.00" timeLoss="58.45" rerouteNo="0" devices="tripinfo_CAVToC.10 routing_CAVToC.10 ssm_CAVToC.10 toc_CAVToC.10 driverstateCAVToC.10" vType="vehLVOS998" speedFactor="1.08" vaporized=""/>
    <tripinfo id="CVToC.14" depart="44.70" departLane="entry_1" departPos="2.01" departSpeed="26.61" departDelay="5.80" arrival="217.60" arrivalLane="e0_1" arrivalPos="4800.00" arrivalSpeed="36.03" duration="172.90" routeLength="4997.99" waitingTime="0.00" waitingCount="0" stopTime="0.00" timeLoss="34.19" rerouteNo="0" devices="tripinfo_CVToC.14 routing_CVToC.14 ssm_CVToC.14 toc_CVToC.14 driverstateCVToC.14" vType="vehLVOS706" speedFactor="1.00" vaporized=""/>
    <tripinfo id="CVToC.15" depart="47.80" departLane="entry_1" departPos="4.72" departSpeed="27.40" departDelay="8.60" arrival="218.80" arrivalLane="e0_1" arrivalPos="4800.00" arrivalSpeed="35.88" duration="171.00" routeLength="4995.28" waitingTime="0.00" waitingCount="0" stopTime="0.00" timeLoss="31.78" rerouteNo="0" devices="tripinfo_CVToC.15 routing_CVToC.15 ssm_CVToC.15 toc_CVToC.15 driverstateCVToC.15" vType="vehLVOS96" speedFactor="0.99" vaporized=""/>
    <tripinfo id="CVToC.10" depart="33.00" departLane="entry_0" departPos="2.49" departSpeed="28.06" departDelay="2.20" arrival="219.30" arrivalLane="e0_0" arrivalPos="4800.00" arrivalSpeed="30.06" duration="186.30" routeLength="4997.51" waitingTime="0.00" waitingCount="0" stopTime="0.00" timeLoss="20.07" rerouteNo="0" devices="tripinfo_CVToC.10 routing_CVToC.10 ssm_CVToC.10 toc_CVToC.10 driverstateCVToC.10" vType="vehLVOS735" speedFactor="0.83" vaporized=""/>
    <tripinfo id="CAVToC.12" depart="36.30" departLane="entry_0" departPos="9.43" departSpeed="28.45" departDelay="3.90" arrival="222.80" arrivalLane="e0_0" arrivalPos="4800.00" arrivalSpeed="38.53" duration="186.50" routeLength="4990.57" waitingTime="0.00" waitingCount="0" stopTime="0.00" timeLoss="59.66" rerouteNo="0" devices="tripinfo_CAVToC.12 routing_CAVToC.12 ssm_CAVToC.12 toc_CAVToC.12 driverstateCAVToC.12" vType="vehLVOS472" speedFactor="1.09" vaporized=""/>
    <tripinfo id="CVToC.19" depart="50.80" departLane="entry_1" departPos="2.63" departSpeed="28.18" departDelay="4.80" arrival="222.90" arrivalLane="e0_1" arrivalPos="4800.00" arrivalSpeed="36.72" duration="172.10" routeLength="4997.37" waitingTime="0.00" waitingCount="0" stopTime="0.00" timeLoss="36.00" rerouteNo="0" devices="tripinfo_CVToC.19 routing_CVToC.19 ssm_CVToC.19 toc_CVToC.19 driverstateCVToC.19" vType="vehLVOS443" speedFactor="1.02" vaporized=""/>
    <tripinfo id="CVToC.18" depart="56.30" departLane="entry_1" departPos="7.38" departSpeed="28.99" departDelay="13.00" arrival="224.50" arrivalLane="e0_1" arrivalPos="4800.00" arrivalSpeed="34.57" duration="168.20" routeLength="4992.62" waitingTime="0.00" waitingCount="0" stopTime="0.00" timeLoss="23.85" rerouteNo="0" devices="tripinfo_CVToC.18 routing_CVToC.18 ssm_CVToC.18 toc_CVToC.18 driverstateCVToC.18" vType="vehLVOS265" speedFactor="0.96" vaporized=""/>
    <tripinfo id="CVToC.21" depart="55.00" departLane="entry_1" departPos="45.69" departSpeed="28.40" departDelay="5.80" arrival="224.60" arrivalLane="e0_0" arrivalPos="4800.00" arrivalSpeed="34.37" duration="169.60" routeLength="4954.31" waitingTime="0.00" waitingCount="0" stopTime="0.00" timeLoss="25.93" rerouteNo="0" devices="tripinfo_CVToC.21 routing_CVToC.21 ssm_CVToC.21 toc_CVToC.21 driverstateCVToC.21" vType="vehLVOS432" speedFactor="0.96" vaporized=""/>
    <tripinfo id="CVToC.23" depart="59.70" departLane="entry_1" departPos="18.25" departSpeed="29.63" departDelay="6.20" arrival="226.30" arrivalLane="e0_1" arrivalPos="4800.00" arrivalSpeed="37.20" duration="166.60" routeLength="4981.75" waitingTime="0.00" waitingCount="0" stopTime="0.00" timeLoss="36.46" rerouteNo="0" devices="tripinfo_CVToC.23 routing_CVToC.23 ssm_CVToC.23 toc_CVToC.23 driverstateCVToC.23" vType="vehLVOS940" speedFactor="1.06" vaporized=""/>
    <tripinfo id="CVToC.16" depart="44.90" departLane="entry_0" departPos="4.58" departSpeed="23.66" departDelay="4.50" arrival="228.10" arrivalLane="e0_0" arrivalPos="4800.00" arrivalSpeed="33.81" duration="183.20" routeLength="4995.42" waitingTime="0.00" waitingCount="0" stopTime="0.00" timeLoss="35.65" rerouteNo="0" devices="tripinfo_CVToC.16 routing_CVToC.16 ssm_CVToC.16 toc_CVToC.16 driverstateCVToC.16" vType="vehLVOS319" speedFactor="0.94" vaporized=""/>
    <tripinfo id="LV.6" depart="67.50" departLane="entry_1" departPos="6.71" departSpeed="41.50" departDelay="11.80" arrival="238.50" arrivalLane="e0_1" arrivalPos="4800.00" arrivalSpeed="41.47" duration="171.00" routeLength="4993.29" waitingTime="0.00" waitingCount="0" stopTime="0.00" timeLoss="50.61" rerouteNo="0" devices="tripinfo_LV.6 routing_LV.6 ssm_LV.6" vType="vehLVOS507" speedFactor="1.15" vaporized=""/>
    <tripinfo id="CAVToC.18" depart="62.80" departLane="entry_1" departPos="31.25" departSpeed="26.72" departDelay="6.10" arrival="242.20" arrivalLane="e0_0" arrivalPos="4800.00" arrivalSpeed="28.59" duration="179.40" routeLength="4968.75" waitingTime="0.00" waitingCount="0" stopTime="0.00" timeLoss="5.64" rerouteNo="0" devices="tripinfo_CAVToC.18 routing_CAVToC.18 ssm_CAVToC.18 toc_CAVToC.18 driverstateCAVToC.18" vType="vehLVOS333" speedFactor="0.79" vaporized=""/>
    <tripinfo id="CVToC.24" depart="69.60" departLane="entry_1" departPos="8.08" departSpeed="36.47" departDelay="10.10" arrival="243.30" arrivalLane="e0_1" arrivalPos="4800.00" arrivalSpeed="38.68" duration="173.70" routeLength="4991.92" waitingTime="0.00" waitingCount="0" stopTime="0.00" timeLoss="45.22" rerouteNo="0" devices="tripinfo_CVToC.24 routing_CVToC.24 ssm_CVToC.24 toc_CVToC.24 driverstateCVToC.24" vType="vehLVOS309" speedFactor="1.08" vaporized=""/>
    <tripinfo id="LV.5" depart="72.00" departLane="entry_1" departPos="5.18" departSpeed="41.37" departDelay="38.20" arrival="244.40" arrivalLane="e0_1" arrivalPos="4800.00" arrivalSpeed="40.34" duration="172.40" routeLength="4994.82" waitingTime="0.00" waitingCount="0" stopTime="0.00" timeLoss="51.63" rerouteNo="0" devices="tripinfo_LV.5 routing_LV.5 ssm_LV.5" vType="vehLVOS315" speedFactor="1.15" vaporized=""/>
    <tripinfo id="CAVToC.13" depart="39.20" departLane="entry_1" departPos="22.07" departSpeed="24.43" departDelay="2.80" arrival="246.20" arrivalLane="e0_0" arrivalPos="4800.00" arrivalSpeed="24.41" duration="207.00" routeLength="4977.93" waitingTime="0.00" waitingCount="0" stopTime="0.00" timeLoss="3.18" rerouteNo="0" devices="tripinfo_CAVToC.13 routing_CAVToC.13 ssm_CAVToC.13 toc_CAVToC.13 driverstateCAVToC.13" vType="vehLVOS253" speedFactor="0.68" vaporized=""/>
    <tripinfo id="CVToC.25" depart="74.40" departLane="entry_1" departPos="27.90" departSpeed="36.25" departDelay="8.60" arrival="246.20" arrivalLane="e0_1" arrivalPos="4800.00" arrivalSpeed="36.23" duration="171.80" routeLength="4972.10" waitingTime="0.00" waitingCount="0" stopTime="0.00" timeLoss="34.65" rerouteNo="0" devices="tripinfo_CVToC.25 routing_CVToC.25 ssm_CVToC.25 toc_CVToC.25 driverstateCVToC.25" vType="vehLVOS494" speedFactor="1.00" vaporized=""/>
    <tripinfo id="CVToC.13" depart="39.00" departLane="entry_0" departPos="0.64" departSpeed="28.84" departDelay="3.30" arrival="247.30" arrivalLane="e0_0" arrivalPos="4800.00" arrivalSpeed="26.75" duration="208.30" routeLength="4999.36" waitingTime="0.00" waitingCount="0" stopTime="0.00" timeLoss="74.38" rerouteNo="0" devices="tripinfo_CVToC.13 routing_CVToC.13 ssm_CVToC.13 toc_CVToC.13 driverstateCVToC.13" vType="vehLVOS537" speedFactor="1.03" vaporized=""/>
    <tripinfo id="CAVToC.15" depart="41.50" departLane="entry_0" departPos="2.13" departSpeed="23.83" departDelay="3.50" arrival="250.00" arrivalLane="e0_0" arrivalPos="4800.00" arrivalSpeed="29.84" duration="208.50" routeLength="4997.87" waitingTime="0.00" waitingCount="0" stopTime="0.00" timeLoss="40.95" rerouteNo="0" devices="tripinfo_CAVToC.15 routing_CAVToC.15 ssm_CAVToC.15 toc_CAVToC.15 driverstateCAVToC.15" vType="vehLVOS676" speedFactor="0.83" vaporized=""/>
    <tripinfo id="CAVToC.23" depart="75.90" departLane="entry_1" departPos="12.04" departSpeed="32.19" departDelay="4.40" arrival="251.40" arrivalLane="e0_1" arrivalPos="4800.00" arrivalSpeed="32.18" duration="175.50" routeLength="4987.96" waitingTime="0.00" waitingCount="0" stopTime="0.00" timeLoss="20.51" rerouteNo="0" devices="tripinfo_CAVToC.23 routing_CAVToC.23 ssm_CAVToC.23 toc_CAVToC.23 driverstateCAVToC.23" vType="vehLVOS570" speedFactor="0.89" vaporized=""/>
    <tripinfo id="CVToC.17" depart="48.90" departLane="entry_0" departPos="11.86" departSpeed="24.91" departDelay="7.00" arrival="251.60" arrivalLane="e0_0" arrivalPos="4800.00" arrivalSpeed="29.79" duration="202.70" routeLength="4988.14" waitingTime="0.00" waitingCount="0" stopTime="0.00" timeLoss="72.66" rerouteNo="0" devices="tripinfo_CVToC.17 routing_CVToC.17 ssm_CVToC.17 toc_CVToC.17 driverstateCVToC.17" vType="vehLVOS265" speedFactor="1.06" vaporized=""/>
    <tripinfo id="CVToC.27" depart="78.40" departLane="entry_1" departPos="17.47" departSpeed="32.57" departDelay="4.80" arrival="252.20" arrivalLane="e0_1" arrivalPos="4800.00" arrivalSpeed="33.47" duration="173.80" routeLength="4982.53" waitingTime="0.00" waitingCount="0" stopTime="0.00" timeLoss="31.18" rerouteNo="0" devices="tripinfo_CVToC.27 routing_CVToC.27 ssm_CVToC.27 toc_CVToC.27 driverstateCVToC.27" vType="vehLVOS969" speedFactor="0.97" vaporized=""/>
    <tripinfo id="CVToC.22" depart="53.10" departLane="entry_0" departPos="26.41" departSpeed="26.19" departDelay="1.50" arrival="253.40" arrivalLane="e0_0" arrivalPos="4800.00" arrivalSpeed="30.90" duration="200.30" routeLength="4973.59" waitingTime="0.00" waitingCount="0" stopTime="0.00" timeLoss="81.85" rerouteNo="0" devices="tripinfo_CVToC.22 routing_CVToC.22 ssm_CVToC.22 toc_CVToC.22 driverstateCVToC.22" vType="vehLVOS804" speedFactor="1.16" vaporized=""/>
    <tripinfo id="CVToC.20" depart="55.40" departLane="entry_0" departPos="6.31" departSpeed="27.01" departDelay="8.40" arrival="254.30" arrivalLane="e0_0" arrivalPos="4800.00" arrivalSpeed="32.04" duration="198.90" routeLength="4993.69" waitingTime="0.00" waitingCount="0" stopTime="0.00" timeLoss="62.43" rerouteNo="0" devices="tripinfo_CVToC.20 routing_CVToC.20 ssm_CVToC.20 toc_CVToC.20 driverstateCVToC.20" vType="vehLVOS82" speedFactor="1.01" vaporized=""/>
    <tripinfo id="CVToC.28" depart="83.20" departLane="entry_1" departPos="13.19" departSpeed="33.28" departDelay="6.10" arrival="255.30" arrivalLane="e0_1" arrivalPos="4800.00" arrivalSpeed="36.66" duration="172.10" routeLength="4986.81" waitingTime="0.00" waitingCount="0" stopTime="0.00" timeLoss="36.26" rerouteNo="0" devices="tripinfo_CVToC.28 routing_CVToC.28 ssm_CVToC.28 toc_CVToC.28 driverstateCVToC.28" vType="vehLVOS355" speedFactor="1.02" vaporized=""/>
    <tripinfo id="CAVToC.16" depart="58.80" departLane="entry_0" departPos="20.21" departSpeed="27.58" departDelay="9.70" arrival="255.60" arrivalLane="e0_0" arrivalPos="4800.00" arrivalSpeed="30.46" duration="196.80" routeLength="4979.79" waitingTime="0.00" waitingCount="0" stopTime="0.00" timeLoss="51.91" rerouteNo="0" devices="tripinfo_CAVToC.16 routing_CAVToC.16 ssm_CAVToC.16 toc_CAVToC.16 driverstateCAVToC.16" vType="vehLVOS137" speedFactor="0.95" vaporized=""/>
    <tripinfo id="CAVToC.22" depart="75.50" departLane="entry_0" departPos="24.25" departSpeed="30.63" departDelay="4.70" arrival="256.40" arrivalLane="e0_1" arrivalPos="4800.00" arrivalSpeed="37.32" duration="180.90" routeLength="4975.75" waitingTime="0.00" waitingCount="0" stopTime="0.00" timeLoss="59.35" rerouteNo="0" devices="tripinfo_CAVToC.22 routing_CAVToC.22 ssm_CAVToC.22 toc_CAVToC.22 driverstateCAVToC.22" vType="vehLVOS889" speedFactor="1.13" vaporized=""/>
    <tripinfo id="LV.7" depart="59.70" departLane="entry_1" departPos="9.93" departSpeed="26.42" departDelay="3.90" arrival="257.10" arrivalLane="e0_0" arrivalPos="4800.00" arrivalSpeed="26.38" duration="197.40" routeLength="4990.07" waitingTime="0.00" waitingCount="0" stopTime="0.00" timeLoss="8.54" rerouteNo="0" devices="tripinfo_LV.7 routing_LV.7 ssm_LV.7" vType="vehLVOS24" speedFactor="0.73" vaporized=""/>
    <tripinfo id="CAVToC.21" depart="85.90" departLane="entry_1" departPos="11.16" departSpeed="33.93" departDelay="16.10" arrival="258.30" arrivalLane="e0_1" arrivalPos="4800.00" arrivalSpeed="36.99" duration="172.40" routeLength="4988.84" waitingTime="0.00" waitingCount="0" stopTime="0.00" timeLoss="54.31" rerouteNo="0" devices="tripinfo_CAVToC.21 routing_CAVToC.21 ssm_CAVToC.21 toc_CAVToC.21 driverstateCAVToC.21" vType="vehLVOS972" speedFactor="1.17" vaporized=""/>
    <tripinfo id="CAVToC.17" depart="60.90" departLane="entry_0" departPos="2.78" departSpeed="28.58" departDelay="7.20" arrival="259.00" arrivalLane="e0_0" arrivalPos="4800.00" arrivalSpeed="28.59" duration="198.10" routeLength="4997.22" waitingTime="0.00" waitingCount="0" stopTime="0.00" timeLoss="52.75" rerouteNo="0" devices="tripinfo_CAVToC.17 routing_CAVToC.17 ssm_CAVToC.17 toc_CAVToC.17 driverstateCAVToC.17" vType="vehLVOS557" speedFactor="0.95" vaporized=""/>
    <tripinfo id="LV.4" depart="88.10" departLane="entry_1" departPos="4.60" departSpeed="36.28" departDelay="57.40" arrival="259.50" arrivalLane="e0_1" arrivalPos="4800.00" arrivalSpeed="36.26" duration="171.40" routeLength="4995.40" waitingTime="0.00" waitingCount="0" stopTime="0.00" timeLoss="33.71" rerouteNo="0" devices="tripinfo_LV.4 routing_LV.4 ssm_LV.4" vType="vehLVOS504" speedFactor="1.00" vaporized=""/>
    <tripinfo id="CAVToC.26" depart="85.30" departLane="entry_0" departPos="20.67" departSpeed="30.86" departDelay="9.20" arrival="260.90" arrivalLane="e0_1" arrivalPos="4800.00" arrivalSpeed="33.29" duration="175.60" routeLength="4979.33" waitingTime="0.00" waitingCount="0" stopTime="0.00" timeLoss="26.01" rerouteNo="0" devices="tripinfo_CAVToC.26 routing_CAVToC.26 ssm_CAVToC.26 toc_CAVToC.26 driverstateCAVToC.26" vType="vehLVOS636" speedFactor="0.92" vaporized=""/>
    <tripinfo id="CAVToC.19" depart="65.80" departLane="entry_0" departPos="30.01" departSpeed="23.23" departDelay="8.90" arrival="261.50" arrivalLane="e0_0" arrivalPos="4800.00" arrivalSpeed="29.08" duration="195.70" routeLength="4969.99" waitingTime="0.00" waitingCount="0" stopTime="0.00" timeLoss="72.72" rerouteNo="0" devices="tripinfo_CAVToC.19 routing_CAVToC.19 ssm_CAVToC.19 toc_CAVToC.19 driverstateCAVToC.19" vType="vehLVOS479" speedFactor="1.12" vaporized=""/>
    <tripinfo id="CAVToC.29" depart="90.60" departLane="entry_1" departPos="7.93" departSpeed="34.91" departDelay="13.20" arrival="262.00" arrivalLane="e0_1" arrivalPos="4800.00" arrivalSpeed="34.50" duration="171.40" routeLength="4992.07" waitingTime="0.00" waitingCount="0" stopTime="0.00" timeLoss="47.54" rerouteNo="0" devices="tripinfo_CAVToC.29 routing_CAVToC.29 ssm_CAVToC.29 toc_CAVToC.29 driverstateCAVToC.29" vType="vehLVOS660" speedFactor="1.12" vaporized=""/>