<?xml version="1.0" encoding="UTF-8"?>

<!-- generated on 08/27/20 11:33:14 by Eclipse SUMO Version 1.6.0
<configuration xmlns:xsi="http://www.w3.org/2001/XMLSchema-instance" xsi:noNamespaceSchemaLocation="http://sumo.dlr.de/xsd/sumoConfiguration.xsd">

    <input>
        <net-file value="scenario/UC5_1.net.xml"/>
        <route-files value="scenario/routes_trafficMix_0_trafficDemand_1_driverBehaviour_OS_seed_0.xml"/>
        <additional-files value="scenario/additionalsOutput_trafficMix_0_trafficDemand_1_driverBehaviour_OS_seed_0.xml,scenario/vTypesCAVToC_OS.add.xml,scenario/vTypesCVToC_OS.add.xml,scenario/vTypesLV_OS.add.xml,scenario/shapes.add.xml,scenario/view.add.xml"/>
    </input>

    <output>
        <tripinfo-output value="C:\Users\laborknecht\Aris\workspace\tor-distribution/outputs/simulations/DQN__2020-08-26_20-57-26__20200827-113306/tripinfo_1.xml"/>
    </output>

    <time>
        <step-length value="0.1"/>
    </time>

    <processing>
        <step-method.ballistic value="true"/>
        <ignore-route-errors value="true"/>
        <lanechange.duration value="2.5"/>
    </processing>

    <report>
        <no-step-log value="true"/>
    </report>

    <toc_device>
        <device.toc.ogNewTimeHeadway value="100"/>
        <device.toc.ogNewSpaceHeadway value="5"/>
        <device.toc.ogMaxDecel value="1"/>
        <device.toc.ogChangeRate value="1"/>
    </toc_device>

    <traci_server>
        <remote-port value="56043"/>
    </traci_server>

    <random_number>
        <seed value="1025"/>
    </random_number>

    <gui_only>
        <tracker-interval value="0.1"/>
    </gui_only>

</configuration>
-->

<tripinfos xmlns:xsi="http://www.w3.org/2001/XMLSchema-instance" xsi:noNamespaceSchemaLocation="http://sumo.dlr.de/xsd/tripinfo_file.xsd">
    <tripinfo id="CVToC.2" depart="7.10" departLane="entry_1" departPos="199.90" departSpeed="37.77" departDelay="0.00" arrival="133.10" arrivalLane="e0_1" arrivalPos="4800.00" arrivalSpeed="40.58" duration="126.00" routeLength="4800.10" waitingTime="0.00" waitingCount="0" stopTime="0.00" timeLoss="7.67" rerouteNo="0" devices="tripinfo_CVToC.2 routing_CVToC.2 ssm_CVToC.2 toc_CVToC.2 driverstateCVToC.2" vType="vehLVOS696" speedFactor="1.12" vaporized=""/>
    <tripinfo id="LV.0" depart="4.60" departLane="entry_1" departPos="199.90" departSpeed="37.23" departDelay="0.00" arrival="133.80" arrivalLane="e0_0" arrivalPos="4800.00" arrivalSpeed="37.11" duration="129.20" routeLength="4800.10" waitingTime="0.00" waitingCount="0" stopTime="0.00" timeLoss="0.25" rerouteNo="0" devices="tripinfo_LV.0 routing_LV.0 ssm_LV.0" vType="vehLVOS656" speedFactor="1.03" vaporized=""/>
    <tripinfo id="LV.1" depart="8.00" departLane="entry_1" departPos="42.72" departSpeed="39.19" departDelay="0.00" arrival="138.60" arrivalLane="e0_1" arrivalPos="4800.00" arrivalSpeed="39.01" duration="130.60" routeLength="4957.28" waitingTime="0.00" waitingCount="0" stopTime="0.00" timeLoss="4.01" rerouteNo="0" devices="tripinfo_LV.1 routing_LV.1 ssm_LV.1" vType="vehLVOS687" speedFactor="1.09" vaporized=""/>
    <tripinfo id="CVToC.0" depart="2.30" departLane="entry_0" departPos="199.90" departSpeed="35.42" departDelay="0.00" arrival="139.20" arrivalLane="e0_0" arrivalPos="4800.00" arrivalSpeed="35.32" duration="136.90" routeLength="4800.10" waitingTime="0.00" waitingCount="0" stopTime="0.00" timeLoss="1.29" rerouteNo="0" devices="tripinfo_CVToC.0 routing_CVToC.0 ssm_CVToC.0 toc_CVToC.0 driverstateCVToC.0" vType="vehLVOS473" speedFactor="0.98" vaporized=""/>
    <tripinfo id="CVToC.3" depart="9.10" departLane="entry_1" departPos="0.96" departSpeed="36.84" departDelay="0.10" arrival="139.80" arrivalLane="e0_1" arrivalPos="4800.00" arrivalSpeed="41.02" duration="130.70" routeLength="4999.04" waitingTime="0.00" waitingCount="0" stopTime="0.00" timeLoss="10.83" rerouteNo="0" devices="tripinfo_CVToC.3 routing_CVToC.3 ssm_CVToC.3 toc_CVToC.3 driverstateCVToC.3" vType="vehLVOS944" speedFactor="1.16" vaporized=""/>
    <tripinfo id="CVToC.1" depart="3.50" departLane="entry_0" departPos="173.54" departSpeed="32.53" departDelay="0.00" arrival="152.20" arrivalLane="e0_0" arrivalPos="4800.00" arrivalSpeed="32.40" duration="148.70" routeLength="4826.46" waitingTime="0.00" waitingCount="0" stopTime="0.00" timeLoss="0.31" rerouteNo="0" devices="tripinfo_CVToC.1 routing_CVToC.1 ssm_CVToC.1 toc_CVToC.1 driverstateCVToC.1" vType="vehLVOS645" speedFactor="0.90" vaporized=""/>
    <tripinfo id="CVToC.5" depart="13.90" departLane="entry_1" departPos="27.39" departSpeed="23.61" departDelay="0.20" arrival="154.20" arrivalLane="e0_1" arrivalPos="4800.00" arrivalSpeed="37.69" duration="140.30" routeLength="4972.61" waitingTime="0.00" waitingCount="0" stopTime="0.00" timeLoss="8.64" rerouteNo="0" devices="tripinfo_CVToC.5 routing_CVToC.5 ssm_CVToC.5 toc_CVToC.5 driverstateCVToC.5" vType="vehLVOS998" speedFactor="1.05" vaporized=""/>
    <tripinfo id="CAVToC.0" depart="10.10" departLane="entry_0" departPos="199.90" departSpeed="32.14" departDelay="0.10" arrival="159.60" arrivalLane="e0_0" arrivalPos="4800.00" arrivalSpeed="32.12" duration="149.50" routeLength="4800.10" waitingTime="0.00" waitingCount="0" stopTime="0.00" timeLoss="0.11" rerouteNo="0" devices="tripinfo_CAVToC.0 routing_CAVToC.0 ssm_CAVToC.0 toc_CAVToC.0 driverstateCAVToC.0" vType="vehLVOS228" speedFactor="0.89" vaporized=""/>
    <tripinfo id="CAVToC.2" depart="11.40" departLane="entry_0" departPos="103.72" departSpeed="28.97" departDelay="0.10" arrival="161.70" arrivalLane="e0_1" arrivalPos="4800.00" arrivalSpeed="34.01" duration="150.30" routeLength="4896.28" waitingTime="0.00" waitingCount="0" stopTime="0.00" timeLoss="6.33" rerouteNo="0" devices="tripinfo_CAVToC.2 routing_CAVToC.2 ssm_CAVToC.2 toc_CAVToC.2 driverstateCAVToC.2" vType="vehLVOS876" speedFactor="0.94" vaporized=""/>
    <tripinfo id="LV.5" depart="18.00" departLane="entry_0" departPos="33.99" departSpeed="35.33" departDelay="0.00" arrival="165.20" arrivalLane="e0_0" arrivalPos="4800.00" arrivalSpeed="35.23" duration="147.20" routeLength="4966.01" waitingTime="0.00" waitingCount="0" stopTime="0.00" timeLoss="6.64" rerouteNo="0" devices="tripinfo_LV.5 routing_LV.5 ssm_LV.5" vType="vehLVOS488" speedFactor="0.98" vaporized=""/>
    <tripinfo id="CAVToC.3" depart="19.90" departLane="entry_1" departPos="5.84" departSpeed="31.45" departDelay="0.20" arrival="169.20" arrivalLane="e0_0" arrivalPos="4800.00" arrivalSpeed="37.10" duration="149.30" routeLength="4994.16" waitingTime="0.00" waitingCount="0" stopTime="0.00" timeLoss="14.72" rerouteNo="0" devices="tripinfo_CAVToC.3 routing_CAVToC.3 ssm_CAVToC.3 toc_CAVToC.3 driverstateCAVToC.3" vType="vehLVOS517" speedFactor="1.03" vaporized=""/>
    <tripinfo id="LV.3" depart="13.30" departLane="entry_0" departPos="18.67" departSpeed="33.19" departDelay="0.20" arrival="173.70" arrivalLane="e0_0" arrivalPos="4800.00" arrivalSpeed="33.18" duration="160.40" routeLength="4981.33" waitingTime="0.00" waitingCount="0" stopTime="0.00" timeLoss="10.20" rerouteNo="0" devices="tripinfo_LV.3 routing_LV.3 ssm_LV.3" vType="vehLVOS630" speedFactor="0.92" vaporized=""/>
    <tripinfo id="LV.9" depart="22.80" departLane="entry_1" departPos="8.39" departSpeed="34.03" departDelay="1.00" arrival="175.10" arrivalLane="e0_1" arrivalPos="4800.00" arrivalSpeed="34.00" duration="152.30" routeLength="4991.61" waitingTime="0.00" waitingCount="0" stopTime="0.00" timeLoss="5.58" rerouteNo="0" devices="tripinfo_LV.9 routing_LV.9 ssm_LV.9" vType="vehLVOS437" speedFactor="0.94" vaporized=""/>
    <tripinfo id="LV.8" depart="25.30" departLane="entry_1" departPos="2.16" departSpeed="35.64" departDelay="5.20" arrival="176.90" arrivalLane="e0_1" arrivalPos="4800.00" arrivalSpeed="35.63" duration="151.60" routeLength="4997.84" waitingTime="0.00" waitingCount="0" stopTime="0.00" timeLoss="11.35" rerouteNo="0" devices="tripinfo_LV.8 routing_LV.8 ssm_LV.8" vType="vehLVOS557" speedFactor="0.99" vaporized=""/>
    <tripinfo id="CVToC.8" depart="29.70" departLane="entry_1" departPos="0.62" departSpeed="33.68" departDelay="6.40" arrival="180.60" arrivalLane="e0_1" arrivalPos="4800.00" arrivalSpeed="36.42" duration="150.90" routeLength="4999.38" waitingTime="0.00" waitingCount="0" stopTime="0.00" timeLoss="22.96" rerouteNo="0" devices="tripinfo_CVToC.8 routing_CVToC.8 ssm_CVToC.8 toc_CVToC.8 driverstateCVToC.8" vType="vehLVOS508" speedFactor="1.08" vaporized=""/>
    <tripinfo id="CVToC.12" depart="32.20" departLane="entry_1" departPos="4.71" departSpeed="33.58" departDelay="1.50" arrival="182.00" arrivalLane="e0_1" arrivalPos="4800.00" arrivalSpeed="36.37" duration="149.80" routeLength="4995.29" waitingTime="0.00" waitingCount="0" stopTime="0.00" timeLoss="12.60" rerouteNo="0" devices="tripinfo_CVToC.12 routing_CVToC.12 ssm_CVToC.12 toc_CVToC.12 driverstateCVToC.12" vType="vehLVOS709" speedFactor="1.01" vaporized=""/>
    <tripinfo id="CVToC.9" depart="34.00" departLane="entry_0" departPos="16.22" departSpeed="27.47" departDelay="9.20" arrival="183.10" arrivalLane="e0_1" arrivalPos="4800.00" arrivalSpeed="39.03" duration="149.10" routeLength="4983.78" waitingTime="0.00" waitingCount="0" stopTime="0.00" timeLoss="23.24" rerouteNo="0" devices="tripinfo_CVToC.9 routing_CVToC.9 ssm_CVToC.9 toc_CVToC.9 driverstateCVToC.9" vType="vehLVOS45" speedFactor="1.10" vaporized=""/>
    <tripinfo id="CAVToC.1" depart="11.20" departLane="entry_0" departPos="174.95" departSpeed="28.27" departDelay="0.60" arrival="183.70" arrivalLane="e0_0" arrivalPos="4800.00" arrivalSpeed="28.27" duration="172.50" routeLength="4825.05" waitingTime="0.00" waitingCount="0" stopTime="0.00" timeLoss="1.83" rerouteNo="0" devices="tripinfo_CAVToC.1 routing_CAVToC.1 ssm_CAVToC.1 toc_CAVToC.1 driverstateCAVToC.1" vType="vehLVOS103" speedFactor="0.78" vaporized=""/>
    <tripinfo id="LV.6" depart="18.90" departLane="entry_1" departPos="55.44" departSpeed="31.11" departDelay="0.00" arrival="185.00" arrivalLane="e0_0" arrivalPos="4800.00" arrivalSpeed="29.86" duration="166.10" routeLength="4944.56" waitingTime="0.00" waitingCount="0" stopTime="0.00" timeLoss="7.15" rerouteNo="0" devices="tripinfo_LV.6 routing_LV.6 ssm_LV.6" vType="vehLVOS774" speedFactor="0.86" vaporized=""/>
    <tripinfo id="CAVToC.7" depart="38.50" departLane="entry_1" departPos="55.41" departSpeed="30.95" departDelay="3.70" arrival="185.20" arrivalLane="e0_1" arrivalPos="4800.00" arrivalSpeed="38.09" duration="146.70" routeLength="4944.59" waitingTime="0.00" waitingCount="0" stopTime="0.00" timeLoss="16.95" rerouteNo="0" devices="tripinfo_CAVToC.7 routing_CAVToC.7 ssm_CAVToC.7 toc_CAVToC.7 driverstateCAVToC.7" vType="vehLVOS660" speedFactor="1.06" vaporized=""/>
    <tripinfo id="LV.13" depart="43.20" departLane="entry_0" departPos="0.42" departSpeed="36.93" departDelay="5.40" arrival="186.30" arrivalLane="e0_1" arrivalPos="4800.00" arrivalSpeed="36.90" duration="143.10" routeLength="4999.58" waitingTime="0.00" waitingCount="0" stopTime="0.00" timeLoss="7.70" rerouteNo="0" devices="tripinfo_LV.13 routing_LV.13 ssm_LV.13" vType="vehLVOS81" speedFactor="1.02" vaporized=""/>
    <tripinfo id="CVToC.7" depart="27.30" departLane="entry_1" departPos="3.92" departSpeed="32.97" departDelay="4.90" arrival="187.50" arrivalLane="e0_0" arrivalPos="4800.00" arrivalSpeed="32.94" duration="160.20" routeLength="4996.08" waitingTime="0.00" waitingCount="0" stopTime="0.00" timeLoss="8.59" rerouteNo="0" devices="tripinfo_CVToC.7 routing_CVToC.7 ssm_CVToC.7 toc_CVToC.7 driverstateCVToC.7" vType="vehLVOS930" speedFactor="0.91" vaporized=""/>
    <tripinfo id="CVToC.15" depart="41.00" departLane="entry_1" departPos="16.98" departSpeed="30.92" departDelay="1.70" arrival="188.70" arrivalLane="e0_0" arrivalPos="4800.00" arrivalSpeed="34.67" duration="147.70" routeLength="4983.02" waitingTime="0.00" waitingCount="0" stopTime="0.00" timeLoss="4.07" rerouteNo="0" devices="tripinfo_CVToC.15 routing_CVToC.15 ssm_CVToC.15 toc_CVToC.15 driverstateCVToC.15" vType="vehLVOS976" speedFactor="0.96" vaporized=""/>
    <tripinfo id="CVToC.14" depart="46.30" departLane="entry_1" departPos="32.99" departSpeed="35.37" departDelay="8.20" arrival="189.10" arrivalLane="e0_1" arrivalPos="4800.00" arrivalSpeed="37.15" duration="142.80" routeLength="4967.01" waitingTime="0.00" waitingCount="0" stopTime="0.00" timeLoss="9.14" rerouteNo="0" devices="tripinfo_CVToC.14 routing_CVToC.14 ssm_CVToC.14 toc_CVToC.14 driverstateCVToC.14" vType="vehLVOS479" speedFactor="1.03" vaporized=""/>
    <tripinfo id="LV.15" depart="46.80" departLane="entry_0" departPos="122.56" departSpeed="34.75" departDelay="4.50" arrival="191.70" arrivalLane="e0_0" arrivalPos="4800.00" arrivalSpeed="34.75" duration="144.90" routeLength="4877.44" waitingTime="0.00" waitingCount="0" stopTime="0.00" timeLoss="4.56" rerouteNo="0" devices="tripinfo_LV.15 routing_LV.15 ssm_LV.15" vType="vehLVOS180" speedFactor="0.96" vaporized=""/>
    <tripinfo id="LV.12" depart="38.80" departLane="entry_1" departPos="23.13" departSpeed="30.97" departDelay="4.30" arrival="205.30" arrivalLane="e0_0" arrivalPos="4800.00" arrivalSpeed="30.92" duration="166.50" routeLength="4976.87" waitingTime="0.00" waitingCount="0" stopTime="0.00" timeLoss="5.72" rerouteNo="0" devices="tripinfo_LV.12 routing_LV.12 ssm_LV.12" vType="vehLVOS625" speedFactor="0.86" vaporized=""/>
    <tripinfo id="CAVToC.9" depart="47.90" departLane="entry_1" departPos="22.02" departSpeed="31.82" departDelay="6.30" arrival="206.00" arrivalLane="e0_1" arrivalPos="4800.00" arrivalSpeed="31.77" duration="158.10" routeLength="4977.98" waitingTime="0.00" waitingCount="0" stopTime="0.00" timeLoss="1.61" rerouteNo="0" devices="tripinfo_CAVToC.9 routing_CAVToC.9 ssm_CAVToC.9 toc_CAVToC.9 driverstateCAVToC.9" vType="vehLVOS461" speedFactor="0.88" vaporized=""/>
    <tripinfo id="CAVToC.14" depart="52.60" departLane="entry_1" departPos="90.29" departSpeed="32.59" departDelay="7.70" arrival="207.30" arrivalLane="e0_1" arrivalPos="4800.00" arrivalSpeed="33.24" duration="154.70" routeLength="4909.71" waitingTime="0.00" waitingCount="0" stopTime="0.00" timeLoss="27.22" rerouteNo="0" devices="tripinfo_CAVToC.14 routing_CAVToC.14 ssm_CAVToC.14 toc_CAVToC.14 driverstateCAVToC.14" vType="vehLVOS922" speedFactor="1.07" vaporized=""/>
    <tripinfo id="CVToC.19" depart="52.60" departLane="entry_1" departPos="16.68" departSpeed="32.77" departDelay="4.00" arrival="208.70" arrivalLane="e0_0" arrivalPos="4800.00" arrivalSpeed="33.34" duration="156.10" routeLength="4983.32" waitingTime="0.00" waitingCount="0" stopTime="0.00" timeLoss="6.69" rerouteNo="0" devices="tripinfo_CVToC.19 routing_CVToC.19 ssm_CVToC.19 toc_CVToC.19 driverstateCVToC.19" vType="vehLVOS341" speedFactor="0.92" vaporized=""/>
    <tripinfo id="CAVToC.15" depart="57.10" departLane="entry_1" departPos="81.75" departSpeed="31.91" departDelay="9.70" arrival="209.40" arrivalLane="e0_1" arrivalPos="4800.00" arrivalSpeed="35.01" duration="152.30" routeLength="4918.25" waitingTime="0.00" waitingCount="0" stopTime="0.00" timeLoss="15.36" rerouteNo="0" devices="tripinfo_CAVToC.15 routing_CAVToC.15 ssm_CAVToC.15 toc_CAVToC.15 driverstateCAVToC.15" vType="vehLVOS583" speedFactor="1.00" vaporized=""/>
    <tripinfo id="CVToC.18" depart="57.10" departLane="entry_1" departPos="4.99" departSpeed="32.35" departDelay="9.40" arrival="210.90" arrivalLane="e0_1" arrivalPos="4800.00" arrivalSpeed="35.13" duration="153.80" routeLength="4995.01" waitingTime="0.00" waitingCount="0" stopTime="0.00" timeLoss="11.90" rerouteNo="0" devices="tripinfo_CVToC.18 routing_CVToC.18 ssm_CVToC.18 toc_CVToC.18 driverstateCVToC.18" vType="vehLVOS865" speedFactor="0.98" vaporized=""/>
    <tripinfo id="LV.18" depart="59.20" departLane="entry_1" departPos="17.24" departSpeed="34.86" departDelay="8.40" arrival="212.10" arrivalLane="e0_0" arrivalPos="4800.00" arrivalSpeed="34.82" duration="152.90" routeLength="4982.76" waitingTime="0.00" waitingCount="0" stopTime="0.00" timeLoss="9.88" rerouteNo="0" devices="tripinfo_LV.18 routing_LV.18 ssm_LV.18" vType="vehLVOS769" speedFactor="0.97" vaporized=""/>
    <tripinfo id="CVToC.17" depart="61.60" departLane="entry_1" departPos="11.72" departSpeed="33.92" departDelay="14.60" arrival="213.80" arrivalLane="e0_1" arrivalPos="4800.00" arrivalSpeed="39.14" duration="152.20" routeLength="4988.28" waitingTime="0.00" waitingCount="0" stopTime="0.00" timeLoss="24.95" rerouteNo="0" devices="tripinfo_CVToC.17 routing_CVToC.17 ssm_CVToC.17 toc_CVToC.17 driverstateCVToC.17" vType="vehLVOS223" speedFactor="1.09" vaporized=""/>
    <tripinfo id="CVToC.22" depart="64.80" departLane="entry_1" departPos="38.23" departSpeed="32.53" departDelay="7.20" arrival="214.70" arrivalLane="e0_0" arrivalPos="4800.00" arrivalSpeed="38.52" duration="149.90" routeLength="4961.77" waitingTime="0.00" waitingCount="0" stopTime="0.00" timeLoss="21.03" rerouteNo="0" devices="tripinfo_CVToC.22 routing_CVToC.22 ssm_CVToC.22 toc_CVToC.22 driverstateCVToC.22" vType="vehLVOS989" speedFactor="1.07" vaporized=""/>
    <tripinfo id="CVToC.21" depart="67.60" departLane="entry_1" departPos="45.30" departSpeed="31.91" departDelay="13.60" arrival="216.70" arrivalLane="e0_1" arrivalPos="4800.00" arrivalSpeed="37.58" duration="149.10" routeLength="4954.70" waitingTime="0.00" waitingCount="0" stopTime="0.00" timeLoss="17.44" rerouteNo="0" devices="tripinfo_CVToC.21 routing_CVToC.21 ssm_CVToC.21 toc_CVToC.21 driverstateCVToC.21" vType="vehLVOS167" speedFactor="1.04" vaporized=""/>
    <tripinfo id="LV.17" depart="64.50" departLane="entry_0" departPos="46.75" departSpeed="33.20" departDelay="14.00" arrival="218.10" arrivalLane="e0_0" arrivalPos="4800.00" arrivalSpeed="33.19" duration="153.60" routeLength="4953.25" waitingTime="0.00" waitingCount="0" stopTime="0.00" timeLoss="4.37" rerouteNo="0" devices="tripinfo_LV.17 routing_LV.17 ssm_LV.17" vType="vehLVOS397" speedFactor="0.92" vaporized=""/>
    <tripinfo id="CAVToC.17" depart="72.70" departLane="entry_0" departPos="90.63" departSpeed="28.45" departDelay="16.00" arrival="221.30" arrivalLane="e0_1" arrivalPos="4800.00" arrivalSpeed="37.97" duration="148.60" routeLength="4909.37" waitingTime="0.00" waitingCount="0" stopTime="0.00" timeLoss="19.44" rerouteNo="0" devices="tripinfo_CAVToC.17 routing_CAVToC.17 ssm_CAVToC.17 toc_CAVToC.17 driverstateCAVToC.17" vType="vehLVOS456" speedFactor="1.05" vaporized=""/>
    <tripinfo id="CAVToC.18" depart="68.70" departLane="entry_1" departPos="9.86" departSpeed="31.93" departDelay="10.60" arrival="221.90" arrivalLane="e0_0" arrivalPos="4800.00" arrivalSpeed="33.25" duration="153.20" routeLength="4990.14" waitingTime="0.00" waitingCount="0" stopTime="0.00" timeLoss="3.12" rerouteNo="0" devices="tripinfo_CAVToC.18 routing_CAVToC.18 ssm_CAVToC.18 toc_CAVToC.18 driverstateCAVToC.18" vType="vehLVOS236" speedFactor="0.92" vaporized=""/>
    <tripinfo id="CAVToC.16" depart="71.40" departLane="entry_1" departPos="13.95" departSpeed="31.77" departDelay="17.50" arrival="223.30" arrivalLane="e0_1" arrivalPos="4800.00" arrivalSpeed="37.21" duration="151.90" routeLength="4986.05" waitingTime="0.00" waitingCount="0" stopTime="0.00" timeLoss="17.95" rerouteNo="0" devices="tripinfo_CAVToC.16 routing_CAVToC.16 ssm_CAVToC.16 toc_CAVToC.16 driverstateCAVToC.16" vType="vehLVOS412" speedFactor="1.03" vaporized=""/>
    <tripinfo id="CAVToC.19" depart="74.50" departLane="entry_1" departPos="28.03" departSpeed="31.88" departDelay="14.40" arrival="226.20" arrivalLane="e0_0" arrivalPos="4800.00" arrivalSpeed="37.54" duration="151.70" routeLength="4971.97" waitingTime="0.00" waitingCount="0" stopTime="0.00" timeLoss="19.40" rerouteNo="0" devices="tripinfo_CAVToC.19 routing_CAVToC.19 ssm_CAVToC.19 toc_CAVToC.19 driverstateCAVToC.19" vType="vehLVOS583" speedFactor="1.04" vaporized=""/>
    <tripinfo id="CVToC.24" depart="77.60" departLane="entry_1" departPos="35.88" departSpeed="30.02" departDelay="17.30" arrival="228.30" arrivalLane="e0_1" arrivalPos="4800.00" arrivalSpeed="38.48" duration="150.70" routeLength="4964.12" waitingTime="0.00" waitingCount="0" stopTime="0.00" timeLoss="21.94" rerouteNo="0" devices="tripinfo_CVToC.24 routing_CVToC.24 ssm_CVToC.24 toc_CVToC.24 driverstateCVToC.24" vType="vehLVOS919" speedFactor="1.07" vaporized=""/>
    <tripinfo id="LV.10" depart="86.10" departLane="entry_0" departPos="2.20" departSpeed="45.10" departDelay="59.70" arrival="229.30" arrivalLane="e0_1" arrivalPos="4800.00" arrivalSpeed="40.68" duration="143.20" routeLength="4997.80" waitingTime="0.00" waitingCount="0" stopTime="0.00" timeLoss="32.33" rerouteNo="0" devices="tripinfo_LV.10 routing_LV.10 ssm_LV.10" vType="vehLVOS463" speedFactor="1.25" vaporized=""/>
    <tripinfo id="CVToC.23" depart="79.30" departLane="entry_1" departPos="8.88" departSpeed="30.05" departDelay="21.00" arrival="231.30" arrivalLane="e0_1" arrivalPos="4800.00" arrivalSpeed="36.58" duration="152.00" routeLength="4991.12" waitingTime="0.00" waitingCount="0" stopTime="0.00" timeLoss="15.56" rerouteNo="0" devices="tripinfo_CVToC.23 routing_CVToC.23 ssm_CVToC.23 toc_CVToC.23 driverstateCVToC.23" vType="vehLVOS224" speedFactor="1.01" vaporized=""/>
    <tripinfo id="LV.16" depart="76.40" departLane="entry_0" departPos="7.92" departSpeed="37.44" departDelay="26.60" arrival="233.70" arrivalLane="e0_1" arrivalPos="4800.00" arrivalSpeed="37.42" duration="157.30" routeLength="4992.08" waitingTime="0.00" waitingCount="0" stopTime="0.00" timeLoss="23.88" rerouteNo="0" devices="tripinfo_LV.16 routing_LV.16 ssm_LV.16" vType="vehLVOS918" speedFactor="1.04" vaporized=""/>
    <tripinfo id="LV.2" depart="10.20" departLane="entry_1" departPos="33.72" departSpeed="21.84" departDelay="0.00" arrival="237.80" arrivalLane="e0_0" arrivalPos="4800.00" arrivalSpeed="21.82" duration="227.60" routeLength="4966.28" waitingTime="0.00" waitingCount="0" stopTime="0.00" timeLoss="0.22" rerouteNo="0" devices="tripinfo_LV.2 routing_LV.2 ssm_LV.2" vType="vehLVOS719" speedFactor="0.60" vaporized=""/>
    <tripinfo id="CAVToC.20" depart="88.40" departLane="entry_1" departPos="29.92" departSpeed="33.75" departDelay="27.30" arrival="238.40" arrivalLane="e0_1" arrivalPos="4800.00" arrivalSpeed="33.66" duration="150.00" routeLength="4970.08" waitingTime="0.00" waitingCount="0" stopTime="0.00" timeLoss="2.71" rerouteNo="0" devices="tripinfo_CAVToC.20 routing_CAVToC.20 ssm_CAVToC.20 toc_CAVToC.20 driverstateCAVToC.20" vType="vehLVOS621" speedFactor="0.93" vaporized=""/>
    <tripinfo id="CVToC.4" depart="13.20" departLane="entry_0" departPos="73.46" departSpeed="29.70" departDelay="0.00" arrival="238.70" arrivalLane="e0_0" arrivalPos="4800.00" arrivalSpeed="23.50" duration="225.50" routeLength="4926.54" waitingTime="0.00" waitingCount="0" stopTime="0.00" timeLoss="89.62" rerouteNo="0" devices="tripinfo_CVToC.4 routing_CVToC.4 ssm_CVToC.4 toc_CVToC.4 driverstateCVToC.4" vType="vehLVOS911" speedFactor="1.00" vaporized=""/>
    <tripinfo id="CAVToC.22" depart="90.70" departLane="entry_1" departPos="32.16" departSpeed="34.18" departDelay="24.30" arrival="239.80" arrivalLane="e0_1" arrivalPos="4800.00" arrivalSpeed="36.03" duration="149.10" routeLength="4967.84" waitingTime="0.00" waitingCount="0" stopTime="0.00" timeLoss="15.17" rerouteNo="0" devices="tripinfo_CAVToC.22 routing_CAVToC.22 ssm_CAVToC.22 toc_CAVToC.22 driverstateCAVToC.22" vType="vehLVOS17" speedFactor="1.03" vaporized=""/>
    <tripinfo id="CVToC.6" depart="19.20" departLane="entry_0" departPos="7.52" departSpeed="31.10" departDelay="0.20" arrival="241.40" arrivalLane="e0_0" arrivalPos="4800.00" arrivalSpeed="25.47" duration="222.20" routeLength="4992.48" waitingTime="0.00" waitingCount="0" stopTime="0.00" timeLoss="61.60" rerouteNo="0" devices="tripinfo_CVToC.6 routing_CVToC.6 ssm_CVToC.6 toc_CVToC.6 driverstateCVToC.6" vType="vehLVOS345" speedFactor="0.86" vaporized=""/>
    <tripinfo id="LV.22" depart="91.30" departLane="entry_0" departPos="2.91" departSpeed="41.03" departDelay="28.10" arrival="241.60" arrivalLane="e0_1" arrivalPos="4800.00" arrivalSpeed="37.91" duration="150.30" routeLength="4997.09" waitingTime="0.00" waitingCount="0" stopTime="0.00" timeLoss="28.50" rerouteNo="0" devices="tripinfo_LV.22 routing_LV.22 ssm_LV.22" vType="vehLVOS974" speedFactor="1.14" vaporized=""/>
    <tripinfo id="LV.7" depart="20.10" departLane="entry_0" departPos="18.23" departSpeed="29.79" departDelay="0.30" arrival="242.30" arrivalLane="e0_0" arrivalPos="4800.00" arrivalSpeed="27.05" duration="222.20" routeLength="4981.77" waitingTime="0.00" waitingCount="0" stopTime="0.00" timeLoss="54.92" rerouteNo="0" devices="tripinfo_LV.7 routing_LV.7 ssm_LV.7" vType="vehLVOS513" speedFactor="0.82" vaporized=""/>
    <tripinfo id="CVToC.25" depart="93.90" departLane="entry_0" departPos="22.11" departSpeed="34.56" departDelay="32.30" arrival="242.70" arrivalLane="e0_1" arrivalPos="4800.00" arrivalSpeed="37.00" duration="148.80" routeLength="4977.89" waitingTime="0.00" waitingCount="0" stopTime="0.00" timeLoss="14.56" rerouteNo="0" devices="tripinfo_CVToC.25 routing_CVToC.25 ssm_CVToC.25 toc_CVToC.25 driverstateCVToC.25" vType="vehLVOS156" speedFactor="1.03" vaporized=""/>
    <tripinfo id="CAVToC.4" depart="22.40" departLane="entry_0" departPos="11.62" departSpeed="28.47" departDelay="2.00" arrival="244.40" arrivalLane="e0_0" arrivalPos="4800.00" arrivalSpeed="27.55" duration="222.00" routeLength="4988.38" waitingTime="0.00" waitingCount="0" stopTime="0.00" timeLoss="70.62" rerouteNo="0" devices="tripinfo_CAVToC.4 routing_CAVToC.4 ssm_CAVToC.4 toc_CAVToC.4 driverstateCAVToC.4" vType="vehLVOS975" speedFactor="0.91" vaporized=""/>
    <tripinfo id="CAVToC.5" depart="24.90" departLane="entry_0" departPos="2.79" departSpeed="28.61" departDelay="3.00" arrival="245.50" arrivalLane="e0_0" arrivalPos="4800.00" arrivalSpeed="28.90" duration="220.60" routeLength="4997.21" waitingTime="0.00" waitingCount="0" stopTime="0.00" timeLoss="77.23" rerouteNo="0" devices="tripinfo_CAVToC.5 routing_CAVToC.5 ssm_CAVToC.5 toc_CAVToC.5 driverstateCAVToC.5" vType="vehLVOS194" speedFactor="0.97" vaporized=""/>
    <tripinfo id="CAVToC.24" depart="96.00" departLane="entry_1" departPos="70.09" departSpeed="31.45" departDelay="28.00" arrival="246.10" arrivalLane="e0_1" arrivalPos="4800.00" arrivalSpeed="39.22" duration="150.10" routeLength="4929.91" waitingTime="0.00" waitingCount="0" stopTime="0.00" timeLoss="24.47" rerouteNo="0" devices="tripinfo_CAVToC.24 routing_CAVToC.24 ssm_CAVToC.24 toc_CAVToC.24 driverstateCAVToC.24" vType="vehLVOS532" speedFactor="1.09" vaporized=""/>
    <tripinfo id="CVToC.10" depart="28.10" departLane="entry_0" departPos="16.19" departSpeed="28.05" departDelay="1.00" arrival="246.40" arrivalLane="e0_0" arrivalPos="4800.00" arrivalSpeed="29.23" duration="218.30" routeLength="4983.81" waitingTime="0.00" waitingCount="0" stopTime="0.00" timeLoss="78.25" rerouteNo="0" devices="tripinfo_CVToC.10 routing_CVToC.10 ssm_CVToC.10 toc_CVToC.10 driverstateCVToC.10" vType="vehLVOS597" speedFactor="0.99" vaporized=""/>
    <tripinfo id="CVToC.26" depart="99.10" departLane="entry_1" departPos="73.77" departSpeed="30.74" departDelay="31.50" arrival="247.20" arrivalLane="e0_1" arrivalPos="4800.00" arrivalSpeed="40.85" duration="148.10" routeLength="4926.23" waitingTime="0.00" waitingCount="0" stopTime="0.00" timeLoss="30.66" rerouteNo="0" devices="tripinfo_CVToC.26 routing_CVToC.26 ssm_CVToC.26 toc_CVToC.26 driverstateCVToC.26" vType="vehLVOS952" speedFactor="1.16" vaporized=""/>
    <tripinfo id="CVToC.11" depart="30.60" departLane="entry_0" departPos="14.88" departSpeed="27.57" departDelay="0.50" arrival="247.70" arrivalLane="e0_0" arrivalPos="4800.00" arrivalSpeed="29.65" duration="217.10" routeLength="4985.12" waitingTime="0.00" waitingCount="0" stopTime="0.00" timeLoss="61.55" rerouteNo="0" devices="tripinfo_CVToC.11 routing_CVToC.11 ssm_CVToC.11 toc_CVToC.11 driverstateCVToC.11" vType="vehLVOS401" speedFactor="0.89" vaporized=""/>
    <tripinfo id="CVToC.13" depart="34.70" departLane="entry_1" departPos="20.84" departSpeed="30.58" departDelay="2.70" arrival="248.80" arrivalLane="e0_0" arrivalPos="4800.00" arrivalSpeed="30.09" duration="214.10" routeLength="4979.16" waitingTime="0.00" waitingCount="0" stopTime="0.00" timeLoss="51.29" rerouteNo="0" devices="tripinfo_CVToC.13 routing_CVToC.13 ssm_CVToC.13 toc_CVToC.13 driverstateCVToC.13" vType="vehLVOS496" speedFactor="0.85" vaporized=""/>
    <tripinfo id="CAVToC.6" depart="37.00" departLane="entry_0" departPos="3.15" departSpeed="27.84" departDelay="3.40" arrival="250.70" arrivalLane="e0_0" arrivalPos="4800.00" arrivalSpeed="29.22" duration="213.70" routeLength="4996.85" waitingTime="0.00" waitingCount="0" stopTime="0.00" timeLoss="100.57" rerouteNo="0" devices="tripinfo_CAVToC.6 routing_CAVToC.6 ssm_CAVToC.6 toc_CAVToC.6 driverstateCAVToC.6" vType="vehLVOS299" speedFactor="1.22" vaporized=""/>
    <tripinfo id="LV.23" depart="93.40" departLane="entry_1" departPos="71.64" departSpeed="32.57" departDelay="28.30" arrival="251.10" arrivalLane="e0_1" arrivalPos="4800.00" arrivalSpeed="32.43" duration="157.70" routeLength="4928.36" waitingTime="0.00" waitingCount="0" stopTime="0.00" timeLoss="6.35" rerouteNo="0" devices="tripinfo_LV.23 routing_LV.23 ssm_LV.23" vType="vehLVOS933" speedFactor="0.90" vaporized=""/>
    <tripinfo id="CAVToC.8" depart="41.70" departLane="entry_0" departPos="57.42" departSpeed="28.55" departDelay="1.20" arrival="251.90" arrivalLane="e0_0" arrivalPos="4800.00" arrivalSpeed="30.49" duration="210.20" routeLength="4942.58" waitingTime="0.00" waitingCount="0" stopTime="0.00" timeLoss="66.24" rerouteNo="0" devices="tripinfo_CAVToC.8 routing_CAVToC.8 ssm_CAVToC.8 toc_CAVToC.8 driverstateCAVToC.8" vType="vehLVOS848" speedFactor="0.95" vaporized=""/>