<?xml version="1.0" encoding="UTF-8"?>

<!-- generated on 08/27/20 12:02:28 by Eclipse SUMO Version 1.6.0
<configuration xmlns:xsi="http://www.w3.org/2001/XMLSchema-instance" xsi:noNamespaceSchemaLocation="http://sumo.dlr.de/xsd/sumoConfiguration.xsd">

    <input>
        <net-file value="scenario/UC5_1.net.xml"/>
        <route-files value="scenario/routes_trafficMix_0_trafficDemand_1_driverBehaviour_OS_seed_0.xml"/>
        <additional-files value="scenario/additionalsOutput_trafficMix_0_trafficDemand_1_driverBehaviour_OS_seed_0.xml,scenario/vTypesCAVToC_OS.add.xml,scenario/vTypesCVToC_OS.add.xml,scenario/vTypesLV_OS.add.xml,scenario/shapes.add.xml,scenario/view.add.xml"/>
    </input>

    <output>
        <tripinfo-output value="C:\Users\laborknecht\Aris\workspace\tor-distribution/outputs/simulations/DQN__2020-08-26_20-57-26__20200827-113306/tripinfo_6.xml"/>
    </output>

    <time>
        <step-length value="0.1"/>
    </time>

    <processing>
        <step-method.ballistic value="true"/>
        <ignore-route-errors value="true"/>
        <lanechange.duration value="2.5"/>
    </processing>

    <report>
        <no-step-log value="true"/>
    </report>

    <toc_device>
        <device.toc.ogNewTimeHeadway value="100"/>
        <device.toc.ogNewSpaceHeadway value="5"/>
        <device.toc.ogMaxDecel value="1"/>
        <device.toc.ogChangeRate value="1"/>
    </toc_device>

    <traci_server>
        <remote-port value="56285"/>
    </traci_server>

    <random_number>
        <seed value="1030"/>
    </random_number>

    <gui_only>
        <tracker-interval value="0.1"/>
    </gui_only>

</configuration>
-->

<tripinfos xmlns:xsi="http://www.w3.org/2001/XMLSchema-instance" xsi:noNamespaceSchemaLocation="http://sumo.dlr.de/xsd/tripinfo_file.xsd">
    <tripinfo id="CAVToC.1" depart="3.30" departLane="entry_1" departPos="83.45" departSpeed="36.49" departDelay="0.00" arrival="131.70" arrivalLane="e0_1" arrivalPos="4800.00" arrivalSpeed="39.00" duration="128.40" routeLength="4916.55" waitingTime="0.00" waitingCount="0" stopTime="0.00" timeLoss="2.36" rerouteNo="0" devices="tripinfo_CAVToC.1 routing_CAVToC.1 ssm_CAVToC.1 toc_CAVToC.1 driverstateCAVToC.1" vType="vehLVOS524" speedFactor="1.08" vaporized=""/>
    <tripinfo id="LV.1" depart="6.70" departLane="entry_1" departPos="134.40" departSpeed="39.39" departDelay="0.00" arrival="133.60" arrivalLane="e0_0" arrivalPos="4800.00" arrivalSpeed="39.33" duration="126.90" routeLength="4865.60" waitingTime="0.00" waitingCount="0" stopTime="0.00" timeLoss="3.35" rerouteNo="0" devices="tripinfo_LV.1 routing_LV.1 ssm_LV.1" vType="vehLVOS289" speedFactor="1.09" vaporized=""/>
    <tripinfo id="CAVToC.2" depart="6.70" departLane="entry_1" departPos="42.54" departSpeed="37.15" departDelay="0.00" arrival="135.20" arrivalLane="e0_1" arrivalPos="4800.00" arrivalSpeed="43.15" duration="128.50" routeLength="4957.46" waitingTime="0.00" waitingCount="0" stopTime="0.00" timeLoss="16.11" rerouteNo="0" devices="tripinfo_CAVToC.2 routing_CAVToC.2 ssm_CAVToC.2 toc_CAVToC.2 driverstateCAVToC.2" vType="vehLVOS54" speedFactor="1.22" vaporized=""/>
    <tripinfo id="LV.0" depart="2.10" departLane="entry_1" departPos="125.88" departSpeed="36.69" departDelay="0.00" arrival="135.40" arrivalLane="e0_0" arrivalPos="4800.00" arrivalSpeed="36.69" duration="133.30" routeLength="4874.12" waitingTime="0.00" waitingCount="0" stopTime="0.00" timeLoss="0.37" rerouteNo="0" devices="tripinfo_LV.0 routing_LV.0 ssm_LV.0" vType="vehLVOS158" speedFactor="1.02" vaporized=""/>
    <tripinfo id="CVToC.1" depart="10.00" departLane="entry_1" departPos="2.87" departSpeed="36.49" departDelay="0.00" arrival="141.70" arrivalLane="e0_1" arrivalPos="4800.00" arrivalSpeed="39.02" duration="131.70" routeLength="4997.13" waitingTime="0.00" waitingCount="0" stopTime="0.00" timeLoss="3.58" rerouteNo="0" devices="tripinfo_CVToC.1 routing_CVToC.1 ssm_CVToC.1 toc_CVToC.1 driverstateCVToC.1" vType="vehLVOS216" speedFactor="1.08" vaporized=""/>
    <tripinfo id="CAVToC.3" depart="6.90" departLane="entry_0" departPos="199.90" departSpeed="42.68" departDelay="0.00" arrival="143.30" arrivalLane="e0_1" arrivalPos="4800.00" arrivalSpeed="41.94" duration="136.40" routeLength="4800.10" waitingTime="0.00" waitingCount="0" stopTime="0.00" timeLoss="23.86" rerouteNo="0" devices="tripinfo_CAVToC.3 routing_CAVToC.3 ssm_CAVToC.3 toc_CAVToC.3 driverstateCAVToC.3" vType="vehLVOS235" speedFactor="1.18" vaporized=""/>
    <tripinfo id="CVToC.0" depart="8.60" departLane="entry_1" departPos="34.16" departSpeed="36.34" departDelay="0.00" arrival="143.70" arrivalLane="e0_0" arrivalPos="4800.00" arrivalSpeed="37.15" duration="135.10" routeLength="4965.84" waitingTime="0.00" waitingCount="0" stopTime="0.00" timeLoss="1.39" rerouteNo="0" devices="tripinfo_CVToC.0 routing_CVToC.0 ssm_CVToC.0 toc_CVToC.0 driverstateCVToC.0" vType="vehLVOS918" speedFactor="1.03" vaporized=""/>
    <tripinfo id="CAVToC.5" depart="14.40" departLane="entry_1" departPos="1.18" departSpeed="34.40" departDelay="0.00" arrival="152.70" arrivalLane="e0_0" arrivalPos="4800.00" arrivalSpeed="37.33" duration="138.30" routeLength="4998.82" waitingTime="0.00" waitingCount="0" stopTime="0.00" timeLoss="4.43" rerouteNo="0" devices="tripinfo_CAVToC.5 routing_CAVToC.5 ssm_CAVToC.5 toc_CAVToC.5 driverstateCAVToC.5" vType="vehLVOS71" speedFactor="1.03" vaporized=""/>
    <tripinfo id="CVToC.5" depart="19.50" departLane="entry_0" departPos="2.64" departSpeed="29.30" departDelay="0.00" arrival="154.00" arrivalLane="e0_1" arrivalPos="4800.00" arrivalSpeed="38.20" duration="134.50" routeLength="4997.36" waitingTime="0.00" waitingCount="0" stopTime="0.00" timeLoss="3.69" rerouteNo="0" devices="tripinfo_CVToC.5 routing_CVToC.5 ssm_CVToC.5 toc_CVToC.5 driverstateCVToC.5" vType="vehLVOS515" speedFactor="1.06" vaporized=""/>
    <tripinfo id="CAVToC.0" depart="0.50" departLane="entry_1" departPos="199.90" departSpeed="30.92" departDelay="0.00" arrival="156.10" arrivalLane="e0_0" arrivalPos="4800.00" arrivalSpeed="30.92" duration="155.60" routeLength="4800.10" waitingTime="0.00" waitingCount="0" stopTime="0.00" timeLoss="0.33" rerouteNo="0" devices="tripinfo_CAVToC.0 routing_CAVToC.0 ssm_CAVToC.0 toc_CAVToC.0 driverstateCAVToC.0" vType="vehLVOS616" speedFactor="0.86" vaporized=""/>
    <tripinfo id="CAVToC.4" depart="7.40" departLane="entry_0" departPos="142.65" departSpeed="36.84" departDelay="0.00" arrival="156.90" arrivalLane="e0_0" arrivalPos="4800.00" arrivalSpeed="32.85" duration="149.50" routeLength="4857.35" waitingTime="0.00" waitingCount="0" stopTime="0.00" timeLoss="17.62" rerouteNo="0" devices="tripinfo_CAVToC.4 routing_CAVToC.4 ssm_CAVToC.4 toc_CAVToC.4 driverstateCAVToC.4" vType="vehLVOS268" speedFactor="1.02" vaporized=""/>
    <tripinfo id="CVToC.3" depart="12.20" departLane="entry_1" departPos="8.52" departSpeed="33.94" departDelay="0.00" arrival="159.40" arrivalLane="e0_0" arrivalPos="4800.00" arrivalSpeed="33.94" duration="147.20" routeLength="4991.48" waitingTime="0.00" waitingCount="0" stopTime="0.00" timeLoss="0.05" rerouteNo="0" devices="tripinfo_CVToC.3 routing_CVToC.3 ssm_CVToC.3 toc_CVToC.3 driverstateCVToC.3" vType="vehLVOS578" speedFactor="0.94" vaporized=""/>
    <tripinfo id="CAVToC.9" depart="26.70" departLane="entry_1" departPos="62.99" departSpeed="34.06" departDelay="0.10" arrival="161.10" arrivalLane="e0_1" arrivalPos="4800.00" arrivalSpeed="38.33" duration="134.40" routeLength="4937.01" waitingTime="0.00" waitingCount="0" stopTime="0.00" timeLoss="5.96" rerouteNo="0" devices="tripinfo_CAVToC.9 routing_CAVToC.9 ssm_CAVToC.9 toc_CAVToC.9 driverstateCAVToC.9" vType="vehLVOS606" speedFactor="1.06" vaporized=""/>
    <tripinfo id="LV.2" depart="27.50" departLane="entry_0" departPos="1.42" departSpeed="43.85" departDelay="4.40" arrival="162.90" arrivalLane="e0_1" arrivalPos="4800.00" arrivalSpeed="42.01" duration="135.40" routeLength="4998.58" waitingTime="0.00" waitingCount="0" stopTime="0.00" timeLoss="21.39" rerouteNo="0" devices="tripinfo_LV.2 routing_LV.2 ssm_LV.2" vType="vehLVOS332" speedFactor="1.21" vaporized=""/>
    <tripinfo id="CVToC.7" depart="24.30" departLane="entry_1" departPos="70.80" departSpeed="31.94" departDelay="0.00" arrival="166.60" arrivalLane="e0_0" arrivalPos="4800.00" arrivalSpeed="34.61" duration="142.30" routeLength="4929.20" waitingTime="0.00" waitingCount="0" stopTime="0.00" timeLoss="0.47" rerouteNo="0" devices="tripinfo_CVToC.7 routing_CVToC.7 ssm_CVToC.7 toc_CVToC.7 driverstateCVToC.7" vType="vehLVOS545" speedFactor="0.96" vaporized=""/>
    <tripinfo id="LV.4" depart="37.70" departLane="entry_1" departPos="0.73" departSpeed="44.86" departDelay="3.70" arrival="166.80" arrivalLane="e0_1" arrivalPos="4800.00" arrivalSpeed="44.86" duration="129.10" routeLength="4999.27" waitingTime="0.00" waitingCount="0" stopTime="0.00" timeLoss="17.66" rerouteNo="0" devices="tripinfo_LV.4 routing_LV.4 ssm_LV.4" vType="vehLVOS832" speedFactor="1.24" vaporized=""/>
    <tripinfo id="CVToC.8" depart="28.40" departLane="entry_1" departPos="43.19" departSpeed="34.75" departDelay="0.00" arrival="168.80" arrivalLane="e0_0" arrivalPos="4800.00" arrivalSpeed="35.57" duration="140.40" routeLength="4956.81" waitingTime="0.00" waitingCount="0" stopTime="0.00" timeLoss="1.30" rerouteNo="0" devices="tripinfo_CVToC.8 routing_CVToC.8 ssm_CVToC.8 toc_CVToC.8 driverstateCVToC.8" vType="vehLVOS345" speedFactor="0.99" vaporized=""/>
    <tripinfo id="CAVToC.10" depart="33.10" departLane="entry_1" departPos="131.11" departSpeed="35.48" departDelay="0.00" arrival="171.10" arrivalLane="e0_0" arrivalPos="4800.00" arrivalSpeed="37.15" duration="138.00" routeLength="4868.89" waitingTime="0.00" waitingCount="0" stopTime="0.00" timeLoss="7.05" rerouteNo="0" devices="tripinfo_CAVToC.10 routing_CAVToC.10 ssm_CAVToC.10 toc_CAVToC.10 driverstateCAVToC.10" vType="vehLVOS284" speedFactor="1.03" vaporized=""/>
    <tripinfo id="LV.3" depart="31.80" departLane="entry_0" departPos="30.15" departSpeed="36.81" departDelay="0.00" arrival="177.10" arrivalLane="e0_0" arrivalPos="4800.00" arrivalSpeed="36.80" duration="145.30" routeLength="4969.85" waitingTime="0.00" waitingCount="0" stopTime="0.00" timeLoss="10.19" rerouteNo="0" devices="tripinfo_LV.3 routing_LV.3 ssm_LV.3" vType="vehLVOS542" speedFactor="1.02" vaporized=""/>
    <tripinfo id="CAVToC.14" depart="39.50" departLane="entry_1" departPos="6.69" departSpeed="36.35" departDelay="0.80" arrival="180.60" arrivalLane="e0_0" arrivalPos="4800.00" arrivalSpeed="36.87" duration="141.10" routeLength="4993.31" waitingTime="0.00" waitingCount="0" stopTime="0.00" timeLoss="6.04" rerouteNo="0" devices="tripinfo_CAVToC.14 routing_CAVToC.14 ssm_CAVToC.14 toc_CAVToC.14 driverstateCAVToC.14" vType="vehLVOS588" speedFactor="1.02" vaporized=""/>
    <tripinfo id="CAVToC.17" depart="41.60" departLane="entry_1" departPos="6.26" departSpeed="36.34" departDelay="0.70" arrival="181.90" arrivalLane="e0_1" arrivalPos="4800.00" arrivalSpeed="37.82" duration="140.30" routeLength="4993.74" waitingTime="0.00" waitingCount="0" stopTime="0.00" timeLoss="8.23" rerouteNo="0" devices="tripinfo_CAVToC.17 routing_CAVToC.17 ssm_CAVToC.17 toc_CAVToC.17 driverstateCAVToC.17" vType="vehLVOS293" speedFactor="1.05" vaporized=""/>
    <tripinfo id="CAVToC.18" depart="43.70" departLane="entry_1" departPos="3.69" departSpeed="36.35" departDelay="1.70" arrival="188.40" arrivalLane="e0_1" arrivalPos="4800.00" arrivalSpeed="37.99" duration="144.70" routeLength="4996.31" waitingTime="0.00" waitingCount="0" stopTime="0.00" timeLoss="13.14" rerouteNo="0" devices="tripinfo_CAVToC.18 routing_CAVToC.18 ssm_CAVToC.18 toc_CAVToC.18 driverstateCAVToC.18" vType="vehLVOS375" speedFactor="1.05" vaporized=""/>
    <tripinfo id="LV.5" depart="46.40" departLane="entry_1" departPos="6.49" departSpeed="41.00" departDelay="1.90" arrival="189.80" arrivalLane="e0_1" arrivalPos="4800.00" arrivalSpeed="39.60" duration="143.40" routeLength="4993.51" waitingTime="0.00" waitingCount="0" stopTime="0.00" timeLoss="21.50" rerouteNo="0" devices="tripinfo_LV.5 routing_LV.5 ssm_LV.5" vType="vehLVOS601" speedFactor="1.14" vaporized=""/>
    <tripinfo id="CVToC.9" depart="29.70" departLane="entry_0" departPos="19.42" departSpeed="34.92" departDelay="0.00" arrival="190.00" arrivalLane="e0_0" arrivalPos="4800.00" arrivalSpeed="34.92" duration="160.30" routeLength="4980.58" waitingTime="0.00" waitingCount="0" stopTime="0.00" timeLoss="17.65" rerouteNo="0" devices="tripinfo_CVToC.9 routing_CVToC.9 ssm_CVToC.9 toc_CVToC.9 driverstateCVToC.9" vType="vehLVOS18" speedFactor="0.97" vaporized=""/>
    <tripinfo id="CAVToC.6" depart="16.00" departLane="entry_0" departPos="133.08" departSpeed="27.32" departDelay="0.10" arrival="194.80" arrivalLane="e0_1" arrivalPos="4800.00" arrivalSpeed="37.95" duration="178.80" routeLength="4866.92" waitingTime="0.00" waitingCount="0" stopTime="0.00" timeLoss="50.52" rerouteNo="0" devices="tripinfo_CAVToC.6 routing_CAVToC.6 ssm_CAVToC.6 toc_CAVToC.6 driverstateCAVToC.6" vType="vehLVOS222" speedFactor="1.05" vaporized=""/>
    <tripinfo id="CAVToC.22" depart="50.50" departLane="entry_1" departPos="5.30" departSpeed="32.02" departDelay="1.40" arrival="207.00" arrivalLane="e0_1" arrivalPos="4800.00" arrivalSpeed="37.51" duration="156.50" routeLength="4994.70" waitingTime="0.00" waitingCount="0" stopTime="0.00" timeLoss="23.30" rerouteNo="0" devices="tripinfo_CAVToC.22 routing_CAVToC.22 ssm_CAVToC.22 toc_CAVToC.22 driverstateCAVToC.22" vType="vehLVOS201" speedFactor="1.04" vaporized=""/>
    <tripinfo id="CVToC.10" depart="48.10" departLane="entry_1" departPos="12.43" departSpeed="31.28" departDelay="0.00" arrival="207.70" arrivalLane="e0_0" arrivalPos="4800.00" arrivalSpeed="31.20" duration="159.60" routeLength="4987.57" waitingTime="0.00" waitingCount="0" stopTime="0.00" timeLoss="0.11" rerouteNo="0" devices="tripinfo_CVToC.10 routing_CVToC.10 ssm_CVToC.10 toc_CVToC.10 driverstateCVToC.10" vType="vehLVOS532" speedFactor="0.87" vaporized=""/>
    <tripinfo id="CAVToC.24" depart="55.10" departLane="entry_1" departPos="1.20" departSpeed="31.96" departDelay="3.50" arrival="209.30" arrivalLane="e0_1" arrivalPos="4800.00" arrivalSpeed="35.42" duration="154.20" routeLength="4998.80" waitingTime="0.00" waitingCount="0" stopTime="0.00" timeLoss="13.28" rerouteNo="0" devices="tripinfo_CAVToC.24 routing_CAVToC.24 ssm_CAVToC.24 toc_CAVToC.24 driverstateCAVToC.24" vType="vehLVOS321" speedFactor="0.98" vaporized=""/>
    <tripinfo id="CVToC.2" depart="11.30" departLane="entry_0" departPos="199.90" departSpeed="23.98" departDelay="0.00" arrival="211.70" arrivalLane="e0_0" arrivalPos="4800.00" arrivalSpeed="23.97" duration="200.40" routeLength="4800.10" waitingTime="0.00" waitingCount="0" stopTime="0.00" timeLoss="0.22" rerouteNo="0" devices="tripinfo_CVToC.2 routing_CVToC.2 ssm_CVToC.2 toc_CVToC.2 driverstateCVToC.2" vType="vehLVOS596" speedFactor="0.66" vaporized=""/>
    <tripinfo id="CAVToC.25" depart="52.70" departLane="entry_1" departPos="5.55" departSpeed="31.43" departDelay="0.60" arrival="213.00" arrivalLane="e0_1" arrivalPos="4800.00" arrivalSpeed="31.41" duration="160.30" routeLength="4994.45" waitingTime="0.00" waitingCount="0" stopTime="0.00" timeLoss="1.35" rerouteNo="0" devices="tripinfo_CAVToC.25 routing_CAVToC.25 ssm_CAVToC.25 toc_CAVToC.25 driverstateCAVToC.25" vType="vehLVOS267" speedFactor="0.87" vaporized=""/>
    <tripinfo id="CVToC.4" depart="15.30" departLane="entry_0" departPos="199.90" departSpeed="26.06" departDelay="0.20" arrival="213.20" arrivalLane="e0_0" arrivalPos="4800.00" arrivalSpeed="26.28" duration="197.90" routeLength="4800.10" waitingTime="0.00" waitingCount="0" stopTime="0.00" timeLoss="78.33" rerouteNo="0" devices="tripinfo_CVToC.4 routing_CVToC.4 ssm_CVToC.4 toc_CVToC.4 driverstateCVToC.4" vType="vehLVOS926" speedFactor="1.11" vaporized=""/>
    <tripinfo id="CAVToC.7" depart="16.70" departLane="entry_0" departPos="75.57" departSpeed="28.03" departDelay="0.00" arrival="215.00" arrivalLane="e0_0" arrivalPos="4800.00" arrivalSpeed="27.22" duration="198.30" routeLength="4924.43" waitingTime="0.00" waitingCount="0" stopTime="0.00" timeLoss="52.51" rerouteNo="0" devices="tripinfo_CAVToC.7 routing_CAVToC.7 ssm_CAVToC.7 toc_CAVToC.7 driverstateCAVToC.7" vType="vehLVOS499" speedFactor="0.94" vaporized=""/>
    <tripinfo id="CAVToC.13" depart="38.60" departLane="entry_0" departPos="46.23" departSpeed="34.41" departDelay="0.00" arrival="216.10" arrivalLane="e0_1" arrivalPos="4800.00" arrivalSpeed="33.92" duration="177.50" routeLength="4953.77" waitingTime="0.00" waitingCount="0" stopTime="0.00" timeLoss="33.52" rerouteNo="0" devices="tripinfo_CAVToC.13 routing_CAVToC.13 ssm_CAVToC.13 toc_CAVToC.13 driverstateCAVToC.13" vType="vehLVOS716" speedFactor="0.95" vaporized=""/>
    <tripinfo id="CAVToC.8" depart="17.80" departLane="entry_0" departPos="38.49" departSpeed="28.38" departDelay="0.00" arrival="217.40" arrivalLane="e0_0" arrivalPos="4800.00" arrivalSpeed="30.47" duration="199.60" routeLength="4961.51" waitingTime="0.00" waitingCount="0" stopTime="0.00" timeLoss="43.01" rerouteNo="0" devices="tripinfo_CAVToC.8 routing_CAVToC.8 ssm_CAVToC.8 toc_CAVToC.8 driverstateCAVToC.8" vType="vehLVOS589" speedFactor="0.88" vaporized=""/>
    <tripinfo id="CVToC.6" depart="24.40" departLane="entry_0" departPos="142.83" departSpeed="28.38" departDelay="0.30" arrival="219.10" arrivalLane="e0_0" arrivalPos="4800.00" arrivalSpeed="29.19" duration="194.70" routeLength="4857.17" waitingTime="0.00" waitingCount="0" stopTime="0.00" timeLoss="64.38" rerouteNo="0" devices="tripinfo_CVToC.6 routing_CVToC.6 ssm_CVToC.6 toc_CVToC.6 driverstateCVToC.6" vType="vehLVOS915" speedFactor="1.03" vaporized=""/>
    <tripinfo id="CVToC.11" depart="58.60" departLane="entry_1" departPos="33.65" departSpeed="32.28" departDelay="2.50" arrival="219.20" arrivalLane="e0_1" arrivalPos="4800.00" arrivalSpeed="35.25" duration="160.60" routeLength="4966.35" waitingTime="0.00" waitingCount="0" stopTime="0.00" timeLoss="19.67" rerouteNo="0" devices="tripinfo_CVToC.11 routing_CVToC.11 ssm_CVToC.11 toc_CVToC.11 driverstateCVToC.11" vType="vehLVOS568" speedFactor="0.98" vaporized=""/>
    <tripinfo id="CAVToC.11" depart="36.70" departLane="entry_0" departPos="132.92" departSpeed="34.54" departDelay="0.10" arrival="221.00" arrivalLane="e0_0" arrivalPos="4800.00" arrivalSpeed="31.39" duration="184.30" routeLength="4867.08" waitingTime="0.00" waitingCount="0" stopTime="0.00" timeLoss="43.34" rerouteNo="0" devices="tripinfo_CAVToC.11 routing_CAVToC.11 ssm_CAVToC.11 toc_CAVToC.11 driverstateCAVToC.11" vType="vehLVOS980" speedFactor="0.96" vaporized=""/>
    <tripinfo id="CAVToC.12" depart="37.40" departLane="entry_0" departPos="76.05" departSpeed="34.95" departDelay="0.00" arrival="222.00" arrivalLane="e0_0" arrivalPos="4800.00" arrivalSpeed="31.46" duration="184.60" routeLength="4923.95" waitingTime="0.00" waitingCount="0" stopTime="0.00" timeLoss="53.32" rerouteNo="0" devices="tripinfo_CAVToC.12 routing_CAVToC.12 ssm_CAVToC.12 toc_CAVToC.12 driverstateCAVToC.12" vType="vehLVOS432" speedFactor="1.04" vaporized=""/>
    <tripinfo id="LV.8" depart="55.30" departLane="entry_0" departPos="36.74" departSpeed="30.38" departDelay="0.00" arrival="223.30" arrivalLane="e0_0" arrivalPos="4800.00" arrivalSpeed="30.33" duration="168.00" routeLength="4963.26" waitingTime="0.00" waitingCount="0" stopTime="0.00" timeLoss="4.57" rerouteNo="0" devices="tripinfo_LV.8 routing_LV.8 ssm_LV.8" vType="vehLVOS194" speedFactor="0.84" vaporized=""/>
    <tripinfo id="CAVToC.26" depart="60.40" departLane="entry_1" departPos="22.46" departSpeed="31.97" departDelay="1.50" arrival="224.00" arrivalLane="e0_1" arrivalPos="4800.00" arrivalSpeed="31.93" duration="163.60" routeLength="4977.54" waitingTime="0.00" waitingCount="0" stopTime="0.00" timeLoss="7.92" rerouteNo="0" devices="tripinfo_CAVToC.26 routing_CAVToC.26 ssm_CAVToC.26 toc_CAVToC.26 driverstateCAVToC.26" vType="vehLVOS533" speedFactor="0.89" vaporized=""/>
    <tripinfo id="CVToC.14" depart="62.20" departLane="entry_1" departPos="3.60" departSpeed="32.39" departDelay="2.90" arrival="226.10" arrivalLane="e0_1" arrivalPos="4800.00" arrivalSpeed="34.20" duration="163.90" routeLength="4996.40" waitingTime="0.00" waitingCount="0" stopTime="0.00" timeLoss="21.21" rerouteNo="0" devices="tripinfo_CVToC.14 routing_CVToC.14 ssm_CVToC.14 toc_CVToC.14 driverstateCVToC.14" vType="vehLVOS62" speedFactor="0.97" vaporized=""/>
    <tripinfo id="CAVToC.15" depart="39.60" departLane="entry_0" departPos="20.96" departSpeed="27.51" departDelay="0.20" arrival="227.70" arrivalLane="e0_0" arrivalPos="4800.00" arrivalSpeed="27.50" duration="188.10" routeLength="4979.04" waitingTime="0.00" waitingCount="0" stopTime="0.00" timeLoss="7.01" rerouteNo="0" devices="tripinfo_CAVToC.15 routing_CAVToC.15 ssm_CAVToC.15 toc_CAVToC.15 driverstateCAVToC.15" vType="vehLVOS610" speedFactor="0.76" vaporized=""/>
    <tripinfo id="CVToC.17" depart="65.30" departLane="entry_1" departPos="7.38" departSpeed="32.46" departDelay="4.00" arrival="228.30" arrivalLane="e0_1" arrivalPos="4800.00" arrivalSpeed="35.59" duration="163.00" routeLength="4992.62" waitingTime="0.00" waitingCount="0" stopTime="0.00" timeLoss="53.07" rerouteNo="0" devices="tripinfo_CVToC.17 routing_CVToC.17 ssm_CVToC.17 toc_CVToC.17 driverstateCVToC.17" vType="vehLVOS895" speedFactor="1.26" vaporized=""/>
    <tripinfo id="CAVToC.16" depart="42.00" departLane="entry_0" departPos="0.64" departSpeed="28.77" departDelay="1.80" arrival="229.50" arrivalLane="e0_0" arrivalPos="4800.00" arrivalSpeed="31.52" duration="187.50" routeLength="4999.36" waitingTime="0.00" waitingCount="0" stopTime="0.00" timeLoss="58.46" rerouteNo="0" devices="tripinfo_CAVToC.16 routing_CAVToC.16 ssm_CAVToC.16 toc_CAVToC.16 driverstateCAVToC.16" vType="vehLVOS678" speedFactor="1.07" vaporized=""/>
    <tripinfo id="CVToC.18" depart="68.30" departLane="entry_1" departPos="5.39" departSpeed="30.88" departDelay="5.70" arrival="229.60" arrivalLane="e0_1" arrivalPos="4800.00" arrivalSpeed="36.00" duration="161.30" routeLength="4994.61" waitingTime="0.00" waitingCount="0" stopTime="0.00" timeLoss="51.06" rerouteNo="0" devices="tripinfo_CVToC.18 routing_CVToC.18 ssm_CVToC.18 toc_CVToC.18 driverstateCVToC.18" vType="vehLVOS73" speedFactor="1.26" vaporized=""/>
    <tripinfo id="CAVToC.19" depart="45.60" departLane="entry_0" departPos="17.29" departSpeed="29.70" departDelay="1.20" arrival="231.10" arrivalLane="e0_0" arrivalPos="4800.00" arrivalSpeed="32.56" duration="185.50" routeLength="4982.71" waitingTime="0.00" waitingCount="0" stopTime="0.00" timeLoss="57.06" rerouteNo="0" devices="tripinfo_CAVToC.19 routing_CAVToC.19 ssm_CAVToC.19 toc_CAVToC.19 driverstateCAVToC.19" vType="vehLVOS642" speedFactor="1.07" vaporized=""/>
    <tripinfo id="LV.12" depart="71.00" departLane="entry_1" departPos="0.49" departSpeed="34.58" departDelay="0.80" arrival="231.20" arrivalLane="e0_1" arrivalPos="4800.00" arrivalSpeed="34.54" duration="160.20" routeLength="4999.51" waitingTime="0.00" waitingCount="0" stopTime="0.00" timeLoss="15.55" rerouteNo="0" devices="tripinfo_LV.12 routing_LV.12 ssm_LV.12" vType="vehLVOS25" speedFactor="0.96" vaporized=""/>
    <tripinfo id="LV.7" depart="75.00" departLane="entry_1" departPos="22.66" departSpeed="41.71" departDelay="20.50" arrival="232.40" arrivalLane="e0_1" arrivalPos="4800.00" arrivalSpeed="36.20" duration="157.40" routeLength="4977.34" waitingTime="0.00" waitingCount="0" stopTime="0.00" timeLoss="37.99" rerouteNo="0" devices="tripinfo_LV.7 routing_LV.7 ssm_LV.7" vType="vehLVOS237" speedFactor="1.16" vaporized=""/>
    <tripinfo id="CAVToC.20" depart="48.40" departLane="entry_0" departPos="25.71" departSpeed="30.03" departDelay="0.20" arrival="232.70" arrivalLane="e0_0" arrivalPos="4800.00" arrivalSpeed="33.63" duration="184.30" routeLength="4974.29" waitingTime="0.00" waitingCount="0" stopTime="0.00" timeLoss="39.04" rerouteNo="0" devices="tripinfo_CAVToC.20 routing_CAVToC.20 ssm_CAVToC.20 toc_CAVToC.20 driverstateCAVToC.20" vType="vehLVOS460" speedFactor="0.95" vaporized=""/>
    <tripinfo id="LV.11" depart="76.10" departLane="entry_1" departPos="3.74" departSpeed="36.80" departDelay="6.70" arrival="234.80" arrivalLane="e0_1" arrivalPos="4800.00" arrivalSpeed="36.79" duration="158.70" routeLength="4996.26" waitingTime="0.00" waitingCount="0" stopTime="0.00" timeLoss="22.85" rerouteNo="0" devices="tripinfo_LV.11 routing_LV.11 ssm_LV.11" vType="vehLVOS321" speedFactor="1.02" vaporized=""/>
    <tripinfo id="CAVToC.21" depart="50.10" departLane="entry_0" departPos="7.23" departSpeed="30.08" departDelay="1.20" arrival="235.10" arrivalLane="e0_0" arrivalPos="4800.00" arrivalSpeed="30.84" duration="185.00" routeLength="4992.77" waitingTime="0.00" waitingCount="0" stopTime="0.00" timeLoss="23.42" rerouteNo="0" devices="tripinfo_CAVToC.21 routing_CAVToC.21 ssm_CAVToC.21 toc_CAVToC.21 driverstateCAVToC.21" vType="vehLVOS150" speedFactor="0.86" vaporized=""/>
    <tripinfo id="CAVToC.29" depart="78.70" departLane="entry_1" departPos="23.01" departSpeed="34.78" departDelay="4.10" arrival="236.50" arrivalLane="e0_1" arrivalPos="4800.00" arrivalSpeed="34.60" duration="157.80" routeLength="4976.99" waitingTime="0.00" waitingCount="0" stopTime="0.00" timeLoss="14.65" rerouteNo="0" devices="tripinfo_CAVToC.29 routing_CAVToC.29 ssm_CAVToC.29 toc_CAVToC.29 driverstateCAVToC.29" vType="vehLVOS48" speedFactor="0.96" vaporized=""/>
    <tripinfo id="CAVToC.23" depart="53.10" departLane="entry_0" departPos="13.46" departSpeed="30.07" departDelay="3.80" arrival="236.80" arrivalLane="e0_0" arrivalPos="4800.00" arrivalSpeed="34.65" duration="183.70" routeLength="4986.54" waitingTime="0.00" waitingCount="0" stopTime="0.00" timeLoss="48.50" rerouteNo="0" devices="tripinfo_CAVToC.23 routing_CAVToC.23 ssm_CAVToC.23 toc_CAVToC.23 driverstateCAVToC.23" vType="vehLVOS568" speedFactor="1.02" vaporized=""/>
    <tripinfo id="CVToC.12" depart="58.30" departLane="entry_0" departPos="53.22" departSpeed="29.40" departDelay="2.00" arrival="238.60" arrivalLane="e0_0" arrivalPos="4800.00" arrivalSpeed="33.57" duration="180.30" routeLength="4946.78" waitingTime="0.00" waitingCount="0" stopTime="0.00" timeLoss="37.14" rerouteNo="0" devices="tripinfo_CVToC.12 routing_CVToC.12 ssm_CVToC.12 toc_CVToC.12 driverstateCVToC.12" vType="vehLVOS18" speedFactor="0.96" vaporized=""/>
    <tripinfo id="CVToC.19" depart="80.50" departLane="entry_1" departPos="9.07" departSpeed="34.96" departDelay="10.70" arrival="239.10" arrivalLane="e0_1" arrivalPos="4800.00" arrivalSpeed="35.48" duration="158.60" routeLength="4990.93" waitingTime="0.00" waitingCount="0" stopTime="0.00" timeLoss="17.98" rerouteNo="0" devices="tripinfo_CVToC.19 routing_CVToC.19 ssm_CVToC.19 toc_CVToC.19 driverstateCVToC.19" vType="vehLVOS466" speedFactor="0.98" vaporized=""/>
    <tripinfo id="CAVToC.32" depart="82.50" departLane="entry_1" departPos="1.36" departSpeed="35.08" departDelay="5.70" arrival="240.30" arrivalLane="e0_1" arrivalPos="4800.00" arrivalSpeed="35.93" duration="157.80" routeLength="4998.64" waitingTime="0.00" waitingCount="0" stopTime="0.00" timeLoss="18.64" rerouteNo="0" devices="tripinfo_CAVToC.32 routing_CAVToC.32 ssm_CAVToC.32 toc_CAVToC.32 driverstateCAVToC.32" vType="vehLVOS853" speedFactor="1.00" vaporized=""/>
    <tripinfo id="CVToC.23" depart="85.50" departLane="entry_1" departPos="14.54" departSpeed="35.71" departDelay="6.80" arrival="241.30" arrivalLane="e0_1" arrivalPos="4800.00" arrivalSpeed="37.00" duration="155.80" routeLength="4985.46" waitingTime="0.00" waitingCount="0" stopTime="0.00" timeLoss="34.98" rerouteNo="0" devices="tripinfo_CVToC.23 routing_CVToC.23 ssm_CVToC.23 toc_CVToC.23 driverstateCVToC.23" vType="vehLVOS107" speedFactor="1.14" vaporized=""/>
    <tripinfo id="CVToC.13" depart="59.50" departLane="entry_0" departPos="8.52" departSpeed="29.80" departDelay="0.60" arrival="241.60" arrivalLane="e0_0" arrivalPos="4800.00" arrivalSpeed="37.37" duration="182.10" routeLength="4991.48" waitingTime="0.00" waitingCount="0" stopTime="0.00" timeLoss="48.76" rerouteNo="0" devices="tripinfo_CVToC.13 routing_CVToC.13 ssm_CVToC.13 toc_CVToC.13 driverstateCVToC.13" vType="vehLVOS243" speedFactor="1.04" vaporized=""/>
    <tripinfo id="CVToC.16" depart="61.90" departLane="entry_0" departPos="1.95" departSpeed="29.00" departDelay="1.30" arrival="243.10" arrivalLane="e0_0" arrivalPos="4800.00" arrivalSpeed="35.26" duration="181.20" routeLength="4998.05" waitingTime="0.00" waitingCount="0" stopTime="0.00" timeLoss="39.49" rerouteNo="0" devices="tripinfo_CVToC.16 routing_CVToC.16 ssm_CVToC.16 toc_CVToC.16 driverstateCVToC.16" vType="vehLVOS472" speedFactor="0.98" vaporized=""/>
    <tripinfo id="CVToC.15" depart="64.60" departLane="entry_0" departPos="2.42" departSpeed="28.27" departDelay="4.90" arrival="244.60" arrivalLane="e0_0" arrivalPos="4800.00" arrivalSpeed="36.20" duration="180.00" routeLength="4997.58" waitingTime="0.00" waitingCount="0" stopTime="0.00" timeLoss="42.00" rerouteNo="0" devices="tripinfo_CVToC.15 routing_CVToC.15 ssm_CVToC.15 toc_CVToC.15 driverstateCVToC.15" vType="vehLVOS424" speedFactor="1.00" vaporized=""/>
    <tripinfo id="CVToC.24" depart="87.50" departLane="entry_1" departPos="14.56" departSpeed="32.41" departDelay="6.00" arrival="245.90" arrivalLane="e0_1" arrivalPos="4800.00" arrivalSpeed="32.35" duration="158.40" routeLength="4985.44" waitingTime="0.00" waitingCount="0" stopTime="0.00" timeLoss="4.47" rerouteNo="0" devices="tripinfo_CVToC.24 routing_CVToC.24 ssm_CVToC.24 toc_CVToC.24 driverstateCVToC.24" vType="vehLVOS326" speedFactor="0.90" vaporized=""/>