<?xml version="1.0" encoding="UTF-8"?>

<!-- generated on Fri Jun 12 15:52:36 2020 by Eclipse SUMO Version v1_5_0+0820-fb638dbcbf
<configuration xmlns:xsi="http://www.w3.org/2001/XMLSchema-instance" xsi:noNamespaceSchemaLocation="http://sumo.dlr.de/xsd/sumoConfiguration.xsd">

    <input>
        <net-file value="UC5_1.net.xml"/>
        <route-files value="routes_trafficMix_0_trafficDemand_1_driverBehaviour_OS_seed_0.xml"/>
        <additional-files value="additionalsOutput_trafficMix_0_trafficDemand_1_driverBehaviour_OS_seed_0.xml,vTypesCAVToC_OS.add.xml,vTypesCVToC_OS.add.xml,vTypesLV_OS.add.xml,../shapes.add.xml,../view.add.xml"/>
    </input>

    <output>
        <tripinfo-output value="/home/anoulis/workspace/tor-distribution/outputs/simulations/runner//tripinfo_7.xml"/>
    </output>

    <time>
        <step-length value="0.1"/>
    </time>

    <processing>
        <step-method.ballistic value="true"/>
        <ignore-route-errors value="true"/>
        <lanechange.duration value="2.5"/>
    </processing>

    <report>
        <no-step-log value="true"/>
    </report>

    <toc_device>
        <device.toc.ogNewTimeHeadway value="100"/>
        <device.toc.ogNewSpaceHeadway value="5"/>
        <device.toc.ogMaxDecel value="1"/>
        <device.toc.ogChangeRate value="1"/>
    </toc_device>

    <traci_server>
        <remote-port value="57145"/>
    </traci_server>

    <random_number>
        <seed value="1031"/>
    </random_number>

    <gui_only>
        <tracker-interval value="0.1"/>
    </gui_only>

</configuration>
-->

<tripinfos xmlns:xsi="http://www.w3.org/2001/XMLSchema-instance" xsi:noNamespaceSchemaLocation="http://sumo.dlr.de/xsd/tripinfo_file.xsd">
    <tripinfo id="CAVToC.0" depart="4.10" departLane="entry_1" departPos="199.90" departSpeed="36.35" departDelay="0.00" arrival="134.30" arrivalLane="e0_0" arrivalPos="4800.00" arrivalSpeed="37.35" duration="130.20" routeLength="4800.10" waitingTime="0.00" waitingCount="0" stopTime="0.00" timeLoss="1.68" rerouteNo="0" devices="tripinfo_CAVToC.0 routing_CAVToC.0 ssm_CAVToC.0 toc_CAVToC.0 driverstateCAVToC.0" vType="vehLVOS670" speedFactor="1.03" vaporized=""/>
    <tripinfo id="LV.0" depart="0.00" departLane="entry_1" departPos="199.90" departSpeed="35.48" departDelay="0.00" arrival="135.40" arrivalLane="e0_0" arrivalPos="4800.00" arrivalSpeed="35.46" duration="135.40" routeLength="4800.10" waitingTime="0.00" waitingCount="0" stopTime="0.00" timeLoss="0.07" rerouteNo="0" devices="tripinfo_LV.0 routing_LV.0 ssm_LV.0" vType="vehLVOS721" speedFactor="0.98" vaporized=""/>
    <tripinfo id="CAVToC.1" depart="5.90" departLane="entry_0" departPos="199.90" departSpeed="36.34" departDelay="0.00" arrival="136.20" arrivalLane="e0_1" arrivalPos="4800.00" arrivalSpeed="37.69" duration="130.30" routeLength="4800.10" waitingTime="0.00" waitingCount="0" stopTime="0.00" timeLoss="2.88" rerouteNo="0" devices="tripinfo_CAVToC.1 routing_CAVToC.1 ssm_CAVToC.1 toc_CAVToC.1 driverstateCAVToC.1" vType="vehLVOS926" speedFactor="1.04" vaporized=""/>
    <tripinfo id="CVToC.0" depart="1.40" departLane="entry_0" departPos="199.90" departSpeed="38.84" departDelay="0.00" arrival="137.30" arrivalLane="e0_0" arrivalPos="4800.00" arrivalSpeed="38.06" duration="135.90" routeLength="4800.10" waitingTime="0.00" waitingCount="0" stopTime="0.00" timeLoss="12.26" rerouteNo="0" devices="tripinfo_CVToC.0 routing_CVToC.0 ssm_CVToC.0 toc_CVToC.0 driverstateCVToC.0" vType="vehLVOS781" speedFactor="1.08" vaporized=""/>
    <tripinfo id="LV.2" depart="9.00" departLane="entry_1" departPos="29.08" departSpeed="38.69" departDelay="0.00" arrival="154.80" arrivalLane="e0_0" arrivalPos="4800.00" arrivalSpeed="38.54" duration="145.80" routeLength="4970.92" waitingTime="0.00" waitingCount="0" stopTime="0.00" timeLoss="17.25" rerouteNo="0" devices="tripinfo_LV.2 routing_LV.2 ssm_LV.2" vType="vehLVOS492" speedFactor="1.07" vaporized=""/>
    <tripinfo id="LV.1" depart="7.00" departLane="entry_0" departPos="73.86" departSpeed="33.65" departDelay="0.00" arrival="163.20" arrivalLane="e0_0" arrivalPos="4800.00" arrivalSpeed="33.61" duration="156.20" routeLength="4926.14" waitingTime="0.00" waitingCount="0" stopTime="0.00" timeLoss="9.70" rerouteNo="0" devices="tripinfo_LV.1 routing_LV.1 ssm_LV.1" vType="vehLVOS647" speedFactor="0.93" vaporized=""/>
    <tripinfo id="CVToC.2" depart="13.00" departLane="entry_0" departPos="199.90" departSpeed="33.89" departDelay="0.00" arrival="166.30" arrivalLane="e0_0" arrivalPos="4800.00" arrivalSpeed="33.79" duration="153.30" routeLength="4800.10" waitingTime="0.00" waitingCount="0" stopTime="0.00" timeLoss="11.65" rerouteNo="0" devices="tripinfo_CVToC.2 routing_CVToC.2 ssm_CVToC.2 toc_CVToC.2 driverstateCVToC.2" vType="vehLVOS190" speedFactor="0.94" vaporized=""/>
    <tripinfo id="CAVToC.3" depart="12.40" departLane="entry_1" departPos="84.12" departSpeed="34.62" departDelay="0.00" arrival="168.60" arrivalLane="e0_0" arrivalPos="4800.00" arrivalSpeed="34.61" duration="156.20" routeLength="4915.88" waitingTime="0.00" waitingCount="0" stopTime="0.00" timeLoss="14.13" rerouteNo="0" devices="tripinfo_CAVToC.3 routing_CAVToC.3 ssm_CAVToC.3 toc_CAVToC.3 driverstateCAVToC.3" vType="vehLVOS934" speedFactor="0.96" vaporized=""/>
    <tripinfo id="CAVToC.4" depart="13.80" departLane="entry_1" departPos="59.87" departSpeed="33.23" departDelay="0.00" arrival="174.50" arrivalLane="e0_0" arrivalPos="4800.00" arrivalSpeed="33.20" duration="160.70" routeLength="4940.13" waitingTime="0.00" waitingCount="0" stopTime="0.00" timeLoss="12.01" rerouteNo="0" devices="tripinfo_CAVToC.4 routing_CAVToC.4 ssm_CAVToC.4 toc_CAVToC.4 driverstateCAVToC.4" vType="vehLVOS192" speedFactor="0.92" vaporized=""/>
    <tripinfo id="CAVToC.5" depart="15.30" departLane="entry_1" departPos="41.63" departSpeed="33.34" departDelay="0.30" arrival="175.90" arrivalLane="e0_1" arrivalPos="4800.00" arrivalSpeed="33.24" duration="160.60" routeLength="4958.37" waitingTime="0.00" waitingCount="0" stopTime="0.00" timeLoss="11.86" rerouteNo="0" devices="tripinfo_CAVToC.5 routing_CAVToC.5 ssm_CAVToC.5 toc_CAVToC.5 driverstateCAVToC.5" vType="vehLVOS171" speedFactor="0.92" vaporized=""/>
    <tripinfo id="CVToC.6" depart="16.70" departLane="entry_1" departPos="6.08" departSpeed="33.81" departDelay="1.10" arrival="177.20" arrivalLane="e0_1" arrivalPos="4800.00" arrivalSpeed="35.77" duration="160.50" routeLength="4993.92" waitingTime="0.00" waitingCount="0" stopTime="0.00" timeLoss="27.44" rerouteNo="0" devices="tripinfo_CVToC.6 routing_CVToC.6 ssm_CVToC.6 toc_CVToC.6 driverstateCVToC.6" vType="vehLVOS404" speedFactor="1.04" vaporized=""/>
    <tripinfo id="CVToC.8" depart="19.10" departLane="entry_1" departPos="7.37" departSpeed="34.07" departDelay="0.30" arrival="178.60" arrivalLane="e0_1" arrivalPos="4800.00" arrivalSpeed="36.47" duration="159.50" routeLength="4992.63" waitingTime="0.00" waitingCount="0" stopTime="0.00" timeLoss="22.63" rerouteNo="0" devices="tripinfo_CVToC.8 routing_CVToC.8 ssm_CVToC.8 toc_CVToC.8 driverstateCVToC.8" vType="vehLVOS625" speedFactor="1.01" vaporized=""/>
    <tripinfo id="CVToC.7" depart="21.70" departLane="entry_1" departPos="15.13" departSpeed="34.46" departDelay="4.20" arrival="181.30" arrivalLane="e0_1" arrivalPos="4800.00" arrivalSpeed="38.32" duration="159.60" routeLength="4984.87" waitingTime="0.00" waitingCount="0" stopTime="0.00" timeLoss="29.74" rerouteNo="0" devices="tripinfo_CVToC.7 routing_CVToC.7 ssm_CVToC.7 toc_CVToC.7 driverstateCVToC.7" vType="vehLVOS50" speedFactor="1.06" vaporized=""/>
    <tripinfo id="CAVToC.7" depart="23.60" departLane="entry_1" departPos="2.02" departSpeed="34.60" departDelay="0.30" arrival="183.40" arrivalLane="e0_1" arrivalPos="4800.00" arrivalSpeed="36.06" duration="159.80" routeLength="4997.98" waitingTime="0.00" waitingCount="0" stopTime="0.00" timeLoss="21.72" rerouteNo="0" devices="tripinfo_CAVToC.7 routing_CAVToC.7 ssm_CAVToC.7 toc_CAVToC.7 driverstateCAVToC.7" vType="vehLVOS225" speedFactor="1.00" vaporized=""/>
    <tripinfo id="CAVToC.2" depart="6.10" departLane="entry_1" departPos="199.90" departSpeed="27.15" departDelay="0.00" arrival="183.60" arrivalLane="e0_0" arrivalPos="4800.00" arrivalSpeed="27.01" duration="177.50" routeLength="4800.10" waitingTime="0.00" waitingCount="0" stopTime="0.00" timeLoss="0.66" rerouteNo="0" devices="tripinfo_CAVToC.2 routing_CAVToC.2 ssm_CAVToC.2 toc_CAVToC.2 driverstateCAVToC.2" vType="vehLVOS38" speedFactor="0.75" vaporized=""/>
    <tripinfo id="CVToC.1" depart="6.30" departLane="entry_0" departPos="135.48" departSpeed="36.36" departDelay="0.00" arrival="184.90" arrivalLane="e0_0" arrivalPos="4800.00" arrivalSpeed="28.70" duration="178.60" routeLength="4864.52" waitingTime="0.00" waitingCount="0" stopTime="0.00" timeLoss="46.09" rerouteNo="0" devices="tripinfo_CVToC.1 routing_CVToC.1 ssm_CVToC.1 toc_CVToC.1 driverstateCVToC.1" vType="vehLVOS882" speedFactor="1.02" vaporized=""/>
    <tripinfo id="CAVToC.8" depart="26.50" departLane="entry_1" departPos="28.11" departSpeed="33.44" departDelay="0.00" arrival="186.30" arrivalLane="e0_1" arrivalPos="4800.00" arrivalSpeed="33.43" duration="159.80" routeLength="4971.89" waitingTime="0.00" waitingCount="0" stopTime="0.00" timeLoss="11.03" rerouteNo="0" devices="tripinfo_CAVToC.8 routing_CAVToC.8 ssm_CAVToC.8 toc_CAVToC.8 driverstateCAVToC.8" vType="vehLVOS172" speedFactor="0.93" vaporized=""/>
    <tripinfo id="CVToC.3" depart="13.80" departLane="entry_0" departPos="146.71" departSpeed="31.95" departDelay="0.00" arrival="187.30" arrivalLane="e0_0" arrivalPos="4800.00" arrivalSpeed="30.64" duration="173.50" routeLength="4853.29" waitingTime="0.00" waitingCount="0" stopTime="0.00" timeLoss="44.70" rerouteNo="0" devices="tripinfo_CVToC.3 routing_CVToC.3 ssm_CVToC.3 toc_CVToC.3 driverstateCVToC.3" vType="vehLVOS30" speedFactor="1.04" vaporized=""/>
    <tripinfo id="CAVToC.9" depart="28.90" departLane="entry_1" departPos="14.84" departSpeed="34.43" departDelay="0.70" arrival="187.50" arrivalLane="e0_1" arrivalPos="4800.00" arrivalSpeed="35.30" duration="158.60" routeLength="4985.16" waitingTime="0.00" waitingCount="0" stopTime="0.00" timeLoss="39.71" rerouteNo="0" devices="tripinfo_CAVToC.9 routing_CAVToC.9 ssm_CAVToC.9 toc_CAVToC.9 driverstateCAVToC.9" vType="vehLVOS85" speedFactor="1.16" vaporized=""/>
    <tripinfo id="CVToC.4" depart="14.10" departLane="entry_0" departPos="80.86" departSpeed="32.19" departDelay="0.10" arrival="188.10" arrivalLane="e0_0" arrivalPos="4800.00" arrivalSpeed="31.73" duration="174.00" routeLength="4919.14" waitingTime="0.00" waitingCount="0" stopTime="0.00" timeLoss="28.70" rerouteNo="0" devices="tripinfo_CVToC.4 routing_CVToC.4 ssm_CVToC.4 toc_CVToC.4 driverstateCVToC.4" vType="vehLVOS721" speedFactor="0.94" vaporized=""/>
    <tripinfo id="LV.5" depart="29.40" departLane="entry_1" departPos="6.68" departSpeed="34.05" departDelay="0.00" arrival="188.50" arrivalLane="e0_1" arrivalPos="4800.00" arrivalSpeed="33.99" duration="159.10" routeLength="4993.32" waitingTime="0.00" waitingCount="0" stopTime="0.00" timeLoss="12.39" rerouteNo="0" devices="tripinfo_LV.5 routing_LV.5 ssm_LV.5" vType="vehLVOS624" speedFactor="0.94" vaporized=""/>
    <tripinfo id="CVToC.9" depart="24.30" departLane="entry_0" departPos="0.53" departSpeed="32.14" departDelay="0.00" arrival="189.70" arrivalLane="e0_1" arrivalPos="4800.00" arrivalSpeed="35.35" duration="165.40" routeLength="4999.47" waitingTime="0.00" waitingCount="0" stopTime="0.00" timeLoss="42.43" rerouteNo="0" devices="tripinfo_CVToC.9 routing_CVToC.9 ssm_CVToC.9 toc_CVToC.9 driverstateCVToC.9" vType="vehLVOS774" speedFactor="1.13" vaporized=""/>
    <tripinfo id="LV.4" depart="14.50" departLane="entry_0" departPos="17.35" departSpeed="35.74" departDelay="0.10" arrival="190.50" arrivalLane="e0_0" arrivalPos="4800.00" arrivalSpeed="32.92" duration="176.00" routeLength="4982.65" waitingTime="0.00" waitingCount="0" stopTime="0.00" timeLoss="36.58" rerouteNo="0" devices="tripinfo_LV.4 routing_LV.4 ssm_LV.4" vType="vehLVOS294" speedFactor="0.99" vaporized=""/>
    <tripinfo id="LV.3" depart="17.20" departLane="entry_0" departPos="1.35" departSpeed="38.54" departDelay="3.00" arrival="192.30" arrivalLane="e0_0" arrivalPos="4800.00" arrivalSpeed="31.53" duration="175.10" routeLength="4998.65" waitingTime="0.00" waitingCount="0" stopTime="0.00" timeLoss="45.38" rerouteNo="0" devices="tripinfo_LV.3 routing_LV.3 ssm_LV.3" vType="vehLVOS700" speedFactor="1.07" vaporized=""/>
    <tripinfo id="CAVToC.6" depart="22.60" departLane="entry_0" departPos="32.18" departSpeed="31.10" departDelay="0.00" arrival="192.70" arrivalLane="e0_1" arrivalPos="4800.00" arrivalSpeed="31.09" duration="170.10" routeLength="4967.82" waitingTime="0.00" waitingCount="0" stopTime="0.00" timeLoss="10.33" rerouteNo="0" devices="tripinfo_CAVToC.6 routing_CAVToC.6 ssm_CAVToC.6 toc_CAVToC.6 driverstateCAVToC.6" vType="vehLVOS945" speedFactor="0.86" vaporized=""/>
    <tripinfo id="CVToC.5" depart="19.70" departLane="entry_0" departPos="1.49" departSpeed="34.63" departDelay="4.50" arrival="193.60" arrivalLane="e0_1" arrivalPos="4800.00" arrivalSpeed="31.28" duration="173.90" routeLength="4998.51" waitingTime="0.00" waitingCount="0" stopTime="0.00" timeLoss="56.59" rerouteNo="0" devices="tripinfo_CVToC.5 routing_CVToC.5 ssm_CVToC.5 toc_CVToC.5 driverstateCVToC.5" vType="vehLVOS423" speedFactor="1.18" vaporized=""/>
    <tripinfo id="CAVToC.12" depart="33.30" departLane="entry_1" departPos="73.05" departSpeed="30.21" departDelay="0.00" arrival="199.50" arrivalLane="e0_1" arrivalPos="4800.00" arrivalSpeed="30.21" duration="166.20" routeLength="4926.95" waitingTime="0.00" waitingCount="0" stopTime="0.00" timeLoss="3.03" rerouteNo="0" devices="tripinfo_CAVToC.12 routing_CAVToC.12 ssm_CAVToC.12 toc_CAVToC.12 driverstateCAVToC.12" vType="vehLVOS234" speedFactor="0.84" vaporized=""/>
    <tripinfo id="CVToC.10" depart="33.60" departLane="entry_0" departPos="53.24" departSpeed="32.96" departDelay="0.00" arrival="200.20" arrivalLane="e0_1" arrivalPos="4800.00" arrivalSpeed="31.15" duration="166.60" routeLength="4946.76" waitingTime="0.00" waitingCount="0" stopTime="0.00" timeLoss="44.81" rerouteNo="0" devices="tripinfo_CVToC.10 routing_CVToC.10 ssm_CVToC.10 toc_CVToC.10 driverstateCVToC.10" vType="vehLVOS216" speedFactor="1.12" vaporized=""/>
    <tripinfo id="CAVToC.10" depart="28.40" departLane="entry_0" departPos="53.34" departSpeed="32.50" departDelay="0.00" arrival="200.30" arrivalLane="e0_0" arrivalPos="4800.00" arrivalSpeed="30.97" duration="171.90" routeLength="4946.66" waitingTime="0.00" waitingCount="0" stopTime="0.00" timeLoss="37.05" rerouteNo="0" devices="tripinfo_CAVToC.10 routing_CAVToC.10 ssm_CAVToC.10 toc_CAVToC.10 driverstateCAVToC.10" vType="vehLVOS276" speedFactor="1.02" vaporized=""/>
    <tripinfo id="CAVToC.11" depart="30.30" departLane="entry_0" departPos="34.91" departSpeed="32.84" departDelay="0.00" arrival="201.60" arrivalLane="e0_0" arrivalPos="4800.00" arrivalSpeed="32.87" duration="171.30" routeLength="4965.09" waitingTime="0.00" waitingCount="0" stopTime="0.00" timeLoss="33.62" rerouteNo="0" devices="tripinfo_CAVToC.11 routing_CAVToC.11 ssm_CAVToC.11 toc_CAVToC.11 driverstateCAVToC.11" vType="vehLVOS401" speedFactor="1.00" vaporized=""/>
    <tripinfo id="LV.6" depart="36.50" departLane="entry_1" departPos="1.21" departSpeed="31.07" departDelay="2.00" arrival="204.40" arrivalLane="e0_1" arrivalPos="4800.00" arrivalSpeed="31.04" duration="167.90" routeLength="4998.79" waitingTime="0.00" waitingCount="0" stopTime="0.00" timeLoss="7.01" rerouteNo="0" devices="tripinfo_LV.6 routing_LV.6 ssm_LV.6" vType="vehLVOS428" speedFactor="0.86" vaporized=""/>
    <tripinfo id="CVToC.12" depart="37.70" departLane="entry_0" departPos="10.57" departSpeed="27.76" departDelay="0.40" arrival="205.40" arrivalLane="e0_1" arrivalPos="4800.00" arrivalSpeed="33.33" duration="167.70" routeLength="4989.43" waitingTime="0.00" waitingCount="0" stopTime="0.00" timeLoss="25.64" rerouteNo="0" devices="tripinfo_CVToC.12 routing_CVToC.12 ssm_CVToC.12 toc_CVToC.12 driverstateCVToC.12" vType="vehLVOS353" speedFactor="0.97" vaporized=""/>
    <tripinfo id="CAVToC.14" depart="38.70" departLane="entry_1" departPos="1.77" departSpeed="30.74" departDelay="0.90" arrival="207.30" arrivalLane="e0_0" arrivalPos="4800.00" arrivalSpeed="31.22" duration="168.60" routeLength="4998.23" waitingTime="0.00" waitingCount="0" stopTime="0.00" timeLoss="8.53" rerouteNo="0" devices="tripinfo_CAVToC.14 routing_CAVToC.14 ssm_CAVToC.14 toc_CAVToC.14 driverstateCAVToC.14" vType="vehLVOS286" speedFactor="0.86" vaporized=""/>
    <tripinfo id="LV.7" depart="44.00" departLane="entry_1" departPos="1.79" departSpeed="40.24" departDelay="3.90" arrival="207.90" arrivalLane="e0_1" arrivalPos="4800.00" arrivalSpeed="39.79" duration="163.90" routeLength="4998.21" waitingTime="0.00" waitingCount="0" stopTime="0.00" timeLoss="39.64" rerouteNo="0" devices="tripinfo_LV.7 routing_LV.7 ssm_LV.7" vType="vehLVOS316" speedFactor="1.11" vaporized=""/>
    <tripinfo id="CAVToC.13" depart="34.10" departLane="entry_1" departPos="33.15" departSpeed="28.65" departDelay="0.00" arrival="209.40" arrivalLane="e0_0" arrivalPos="4800.00" arrivalSpeed="28.49" duration="175.30" routeLength="4966.85" waitingTime="0.00" waitingCount="0" stopTime="0.00" timeLoss="1.89" rerouteNo="0" devices="tripinfo_CAVToC.13 routing_CAVToC.13 ssm_CAVToC.13 toc_CAVToC.13 driverstateCAVToC.13" vType="vehLVOS893" speedFactor="0.79" vaporized=""/>
    <tripinfo id="CVToC.14" depart="46.90" departLane="entry_1" departPos="29.37" departSpeed="36.74" departDelay="0.30" arrival="210.00" arrivalLane="e0_1" arrivalPos="4800.00" arrivalSpeed="40.36" duration="163.10" routeLength="4970.63" waitingTime="0.00" waitingCount="0" stopTime="0.00" timeLoss="41.58" rerouteNo="0" devices="tripinfo_CVToC.14 routing_CVToC.14 ssm_CVToC.14 toc_CVToC.14 driverstateCVToC.14" vType="vehLVOS345" speedFactor="1.13" vaporized=""/>
    <tripinfo id="CVToC.11" depart="36.10" departLane="entry_0" departPos="38.94" departSpeed="28.78" departDelay="1.60" arrival="210.50" arrivalLane="e0_0" arrivalPos="4800.00" arrivalSpeed="30.58" duration="174.40" routeLength="4961.06" waitingTime="0.00" waitingCount="0" stopTime="0.00" timeLoss="48.74" rerouteNo="0" devices="tripinfo_CVToC.11 routing_CVToC.11 ssm_CVToC.11 toc_CVToC.11 driverstateCVToC.11" vType="vehLVOS897" speedFactor="1.09" vaporized=""/>
    <tripinfo id="CVToC.13" depart="40.50" departLane="entry_0" departPos="4.29" departSpeed="27.95" departDelay="1.30" arrival="211.70" arrivalLane="e0_0" arrivalPos="4800.00" arrivalSpeed="31.17" duration="171.20" routeLength="4995.71" waitingTime="0.00" waitingCount="0" stopTime="0.00" timeLoss="40.36" rerouteNo="0" devices="tripinfo_CVToC.13 routing_CVToC.13 ssm_CVToC.13 toc_CVToC.13 driverstateCVToC.13" vType="vehLVOS624" speedFactor="1.06" vaporized=""/>
    <tripinfo id="CVToC.15" depart="48.20" departLane="entry_1" departPos="8.76" departSpeed="31.22" departDelay="0.20" arrival="212.70" arrivalLane="e0_1" arrivalPos="4800.00" arrivalSpeed="31.17" duration="164.50" routeLength="4991.24" waitingTime="0.00" waitingCount="0" stopTime="0.00" timeLoss="4.57" rerouteNo="0" devices="tripinfo_CVToC.15 routing_CVToC.15 ssm_CVToC.15 toc_CVToC.15 driverstateCVToC.15" vType="vehLVOS419" speedFactor="0.86" vaporized=""/>
    <tripinfo id="LV.11" depart="51.40" departLane="entry_0" departPos="36.10" departSpeed="35.07" departDelay="0.00" arrival="214.60" arrivalLane="e0_1" arrivalPos="4800.00" arrivalSpeed="35.02" duration="163.20" routeLength="4963.90" waitingTime="0.00" waitingCount="0" stopTime="0.00" timeLoss="21.63" rerouteNo="0" devices="tripinfo_LV.11 routing_LV.11 ssm_LV.11" vType="vehLVOS864" speedFactor="0.97" vaporized=""/>
    <tripinfo id="LV.8" depart="47.20" departLane="entry_0" departPos="0.34" departSpeed="40.88" departDelay="2.90" arrival="215.40" arrivalLane="e0_0" arrivalPos="4800.00" arrivalSpeed="30.25" duration="168.20" routeLength="4999.66" waitingTime="0.00" waitingCount="0" stopTime="0.00" timeLoss="45.84" rerouteNo="0" devices="tripinfo_LV.8 routing_LV.8 ssm_LV.8" vType="vehLVOS619" speedFactor="1.13" vaporized=""/>
    <tripinfo id="LV.9" depart="47.70" departLane="entry_0" departPos="12.96" departSpeed="34.02" departDelay="0.00" arrival="216.60" arrivalLane="e0_0" arrivalPos="4800.00" arrivalSpeed="30.26" duration="168.90" routeLength="4987.04" waitingTime="0.00" waitingCount="0" stopTime="0.00" timeLoss="22.31" rerouteNo="0" devices="tripinfo_LV.9 routing_LV.9 ssm_LV.9" vType="vehLVOS571" speedFactor="0.94" vaporized=""/>
    <tripinfo id="CAVToC.15" depart="51.70" departLane="entry_1" departPos="26.95" departSpeed="32.29" departDelay="0.10" arrival="216.70" arrivalLane="e0_1" arrivalPos="4800.00" arrivalSpeed="38.69" duration="165.00" routeLength="4973.05" waitingTime="0.00" waitingCount="0" stopTime="0.00" timeLoss="41.89" rerouteNo="0" devices="tripinfo_CAVToC.15 routing_CAVToC.15 ssm_CAVToC.15 toc_CAVToC.15 driverstateCAVToC.15" vType="vehLVOS745" speedFactor="1.12" vaporized=""/>
    <tripinfo id="LV.10" depart="49.50" departLane="entry_0" departPos="51.97" departSpeed="32.37" departDelay="0.20" arrival="217.90" arrivalLane="e0_0" arrivalPos="4800.00" arrivalSpeed="30.83" duration="168.40" routeLength="4948.03" waitingTime="0.00" waitingCount="0" stopTime="0.00" timeLoss="15.49" rerouteNo="0" devices="tripinfo_LV.10 routing_LV.10 ssm_LV.10" vType="vehLVOS713" speedFactor="0.90" vaporized=""/>
    <tripinfo id="CVToC.17" depart="53.90" departLane="entry_0" departPos="50.85" departSpeed="34.19" departDelay="0.00" arrival="219.90" arrivalLane="e0_0" arrivalPos="4800.00" arrivalSpeed="33.51" duration="166.00" routeLength="4949.15" waitingTime="0.00" waitingCount="0" stopTime="0.00" timeLoss="22.07" rerouteNo="0" devices="tripinfo_CVToC.17 routing_CVToC.17 ssm_CVToC.17 toc_CVToC.17 driverstateCVToC.17" vType="vehLVOS52" speedFactor="0.95" vaporized=""/>
    <tripinfo id="CVToC.16" depart="53.60" departLane="entry_1" departPos="10.04" departSpeed="32.59" departDelay="0.00" arrival="220.10" arrivalLane="e0_1" arrivalPos="4800.00" arrivalSpeed="35.24" duration="166.50" routeLength="4989.96" waitingTime="0.00" waitingCount="0" stopTime="0.00" timeLoss="24.99" rerouteNo="0" devices="tripinfo_CVToC.16 routing_CVToC.16 ssm_CVToC.16 toc_CVToC.16 driverstateCVToC.16" vType="vehLVOS615" speedFactor="0.98" vaporized=""/>
    <tripinfo id="LV.12" depart="55.70" departLane="entry_0" departPos="3.22" departSpeed="39.65" departDelay="0.90" arrival="221.30" arrivalLane="e0_0" arrivalPos="4800.00" arrivalSpeed="35.94" duration="165.60" routeLength="4996.78" waitingTime="0.00" waitingCount="0" stopTime="0.00" timeLoss="39.59" rerouteNo="0" devices="tripinfo_LV.12 routing_LV.12 ssm_LV.12" vType="vehLVOS165" speedFactor="1.10" vaporized=""/>
    <tripinfo id="CAVToC.16" depart="56.70" departLane="entry_1" departPos="24.24" departSpeed="33.26" departDelay="0.30" arrival="221.70" arrivalLane="e0_1" arrivalPos="4800.00" arrivalSpeed="38.40" duration="165.00" routeLength="4975.76" waitingTime="0.00" waitingCount="0" stopTime="0.00" timeLoss="41.23" rerouteNo="0" devices="tripinfo_CAVToC.16 routing_CAVToC.16 ssm_CAVToC.16 toc_CAVToC.16 driverstateCAVToC.16" vType="vehLVOS790" speedFactor="1.11" vaporized=""/>
    <tripinfo id="LV.13" depart="56.30" departLane="entry_0" departPos="15.56" departSpeed="33.19" departDelay="0.00" arrival="223.00" arrivalLane="e0_0" arrivalPos="4800.00" arrivalSpeed="33.18" duration="166.70" routeLength="4984.44" waitingTime="0.00" waitingCount="0" stopTime="0.00" timeLoss="16.50" rerouteNo="0" devices="tripinfo_LV.13 routing_LV.13 ssm_LV.13" vType="vehLVOS883" speedFactor="0.92" vaporized=""/>
    <tripinfo id="CAVToC.17" depart="58.40" departLane="entry_1" departPos="1.84" departSpeed="33.74" departDelay="0.00" arrival="223.10" arrivalLane="e0_1" arrivalPos="4800.00" arrivalSpeed="38.40" duration="164.70" routeLength="4998.16" waitingTime="0.00" waitingCount="0" stopTime="0.00" timeLoss="34.68" rerouteNo="0" devices="tripinfo_CAVToC.17 routing_CAVToC.17 ssm_CAVToC.17 toc_CAVToC.17 driverstateCAVToC.17" vType="vehLVOS533" speedFactor="1.06" vaporized=""/>
    <tripinfo id="CVToC.18" depart="58.90" departLane="entry_0" departPos="11.72" departSpeed="33.17" departDelay="0.20" arrival="225.00" arrivalLane="e0_1" arrivalPos="4800.00" arrivalSpeed="38.27" duration="166.10" routeLength="4988.28" waitingTime="0.00" waitingCount="0" stopTime="0.00" timeLoss="46.87" rerouteNo="0" devices="tripinfo_CVToC.18 routing_CVToC.18 ssm_CVToC.18 toc_CVToC.18 driverstateCVToC.18" vType="vehLVOS1" speedFactor="1.16" vaporized=""/>
    <tripinfo id="CVToC.20" depart="62.40" departLane="entry_1" departPos="0.25" departSpeed="30.33" departDelay="1.20" arrival="230.30" arrivalLane="e0_1" arrivalPos="4800.00" arrivalSpeed="30.35" duration="167.90" routeLength="4999.75" waitingTime="0.00" waitingCount="0" stopTime="0.00" timeLoss="3.15" rerouteNo="0" devices="tripinfo_CVToC.20 routing_CVToC.20 ssm_CVToC.20 toc_CVToC.20 driverstateCVToC.20" vType="vehLVOS344" speedFactor="0.84" vaporized=""/>
    <tripinfo id="CAVToC.18" depart="60.60" departLane="entry_1" departPos="9.60" departSpeed="30.21" departDelay="0.40" arrival="231.20" arrivalLane="e0_0" arrivalPos="4800.00" arrivalSpeed="30.08" duration="170.60" routeLength="4990.40" waitingTime="0.00" waitingCount="0" stopTime="0.00" timeLoss="5.41" rerouteNo="0" devices="tripinfo_CAVToC.18 routing_CAVToC.18 ssm_CAVToC.18 toc_CAVToC.18 driverstateCAVToC.18" vType="vehLVOS170" speedFactor="0.84" vaporized=""/>
    <tripinfo id="CAVToC.19" depart="64.80" departLane="entry_1" departPos="9.11" departSpeed="30.40" departDelay="0.90" arrival="231.70" arrivalLane="e0_1" arrivalPos="4800.00" arrivalSpeed="30.78" duration="166.90" routeLength="4990.89" waitingTime="0.00" waitingCount="0" stopTime="0.00" timeLoss="5.14" rerouteNo="0" devices="tripinfo_CAVToC.19 routing_CAVToC.19 ssm_CAVToC.19 toc_CAVToC.19 driverstateCAVToC.19" vType="vehLVOS973" speedFactor="0.85" vaporized=""/>
    <tripinfo id="LV.14" depart="66.70" departLane="entry_1" departPos="0.28" departSpeed="33.30" departDelay="4.70" arrival="232.80" arrivalLane="e0_1" arrivalPos="4800.00" arrivalSpeed="32.75" duration="166.10" routeLength="4999.72" waitingTime="0.00" waitingCount="0" stopTime="0.00" timeLoss="15.89" rerouteNo="0" devices="tripinfo_LV.14 routing_LV.14 ssm_LV.14" vType="vehLVOS909" speedFactor="0.92" vaporized=""/>
    <tripinfo id="CVToC.19" depart="61.00" departLane="entry_0" departPos="2.18" departSpeed="33.44" departDelay="0.70" arrival="233.00" arrivalLane="e0_0" arrivalPos="4800.00" arrivalSpeed="33.25" duration="172.00" routeLength="4997.82" waitingTime="0.00" waitingCount="0" stopTime="0.00" timeLoss="36.29" rerouteNo="0" devices="tripinfo_CVToC.19 routing_CVToC.19 ssm_CVToC.19 toc_CVToC.19 driverstateCVToC.19" vType="vehLVOS163" speedFactor="1.02" vaporized=""/>
    <tripinfo id="CVToC.24" depart="69.60" departLane="entry_1" departPos="3.49" departSpeed="33.67" departDelay="4.70" arrival="234.20" arrivalLane="e0_1" arrivalPos="4800.00" arrivalSpeed="34.79" duration="164.60" routeLength="4996.51" waitingTime="0.00" waitingCount="0" stopTime="0.00" timeLoss="47.27" rerouteNo="0" devices="tripinfo_CVToC.24 routing_CVToC.24 ssm_CVToC.24 toc_CVToC.24 driverstateCVToC.24" vType="vehLVOS838" speedFactor="1.18" vaporized=""/>
    <tripinfo id="CAVToC.21" depart="72.00" departLane="entry_1" departPos="4.49" departSpeed="33.64" departDelay="4.30" arrival="235.30" arrivalLane="e0_1" arrivalPos="4800.00" arrivalSpeed="33.68" duration="163.30" routeLength="4995.51" waitingTime="0.00" waitingCount="0" stopTime="0.00" timeLoss="33.87" rerouteNo="0" devices="tripinfo_CAVToC.21 routing_CAVToC.21 ssm_CAVToC.21 toc_CAVToC.21 driverstateCAVToC.21" vType="vehLVOS569" speedFactor="1.07" vaporized=""/>
    <tripinfo id="CVToC.22" depart="63.50" departLane="entry_0" departPos="12.14" departSpeed="30.46" departDelay="1.20" arrival="235.60" arrivalLane="e0_0" arrivalPos="4800.00" arrivalSpeed="31.61" duration="172.10" routeLength="4987.86" waitingTime="0.00" waitingCount="0" stopTime="0.00" timeLoss="14.44" rerouteNo="0" devices="tripinfo_CVToC.22 routing_CVToC.22 ssm_CVToC.22 toc_CVToC.22 driverstateCVToC.22" vType="vehLVOS914" speedFactor="0.88" vaporized=""/>
    <tripinfo id="CVToC.21" depart="65.70" departLane="entry_0" departPos="0.71" departSpeed="28.90" departDelay="3.80" arrival="236.50" arrivalLane="e0_0" arrivalPos="4800.00" arrivalSpeed="32.89" duration="170.80" routeLength="4999.29" waitingTime="0.00" waitingCount="0" stopTime="0.00" timeLoss="21.41" rerouteNo="0" devices="tripinfo_CVToC.21 routing_CVToC.21 ssm_CVToC.21 toc_CVToC.21 driverstateCVToC.21" vType="vehLVOS97" speedFactor="0.93" vaporized=""/>
    <tripinfo id="CVToC.26" depart="74.40" departLane="entry_1" departPos="1.13" departSpeed="33.85" departDelay="5.10" arrival="237.40" arrivalLane="e0_1" arrivalPos="4800.00" arrivalSpeed="34.15" duration="163.00" routeLength="4998.87" waitingTime="0.00" waitingCount="0" stopTime="0.00" timeLoss="34.51" rerouteNo="0" devices="tripinfo_CVToC.26 routing_CVToC.26 ssm_CVToC.26 toc_CVToC.26 driverstateCVToC.26" vType="vehLVOS606" speedFactor="1.08" vaporized=""/>
    <tripinfo id="CVToC.23" depart="68.40" departLane="entry_0" departPos="2.94" departSpeed="28.30" departDelay="6.00" arrival="238.00" arrivalLane="e0_0" arrivalPos="4800.00" arrivalSpeed="33.87" duration="169.60" routeLength="4997.06" waitingTime="0.00" waitingCount="0" stopTime="0.00" timeLoss="24.95" rerouteNo="0" devices="tripinfo_CVToC.23 routing_CVToC.23 ssm_CVToC.23 toc_CVToC.23 driverstateCVToC.23" vType="vehLVOS803" speedFactor="0.96" vaporized=""/>