<?xml version="1.0" encoding="UTF-8"?>

<!-- generated on Fri Jun 12 15:56:06 2020 by Eclipse SUMO Version v1_5_0+0820-fb638dbcbf
<configuration xmlns:xsi="http://www.w3.org/2001/XMLSchema-instance" xsi:noNamespaceSchemaLocation="http://sumo.dlr.de/xsd/sumoConfiguration.xsd">

    <input>
        <net-file value="UC5_1.net.xml"/>
        <route-files value="routes_trafficMix_0_trafficDemand_1_driverBehaviour_OS_seed_0.xml"/>
        <additional-files value="additionalsOutput_trafficMix_0_trafficDemand_1_driverBehaviour_OS_seed_0.xml,vTypesCAVToC_OS.add.xml,vTypesCVToC_OS.add.xml,vTypesLV_OS.add.xml,../shapes.add.xml,../view.add.xml"/>
    </input>

    <output>
        <tripinfo-output value="/home/anoulis/workspace/tor-distribution/outputs/simulations/runner//tripinfo_8.xml"/>
    </output>

    <time>
        <step-length value="0.1"/>
    </time>

    <processing>
        <step-method.ballistic value="true"/>
        <ignore-route-errors value="true"/>
        <lanechange.duration value="2.5"/>
    </processing>

    <report>
        <no-step-log value="true"/>
    </report>

    <toc_device>
        <device.toc.ogNewTimeHeadway value="100"/>
        <device.toc.ogNewSpaceHeadway value="5"/>
        <device.toc.ogMaxDecel value="1"/>
        <device.toc.ogChangeRate value="1"/>
    </toc_device>

    <traci_server>
        <remote-port value="40547"/>
    </traci_server>

    <random_number>
        <seed value="1032"/>
    </random_number>

    <gui_only>
        <tracker-interval value="0.1"/>
    </gui_only>

</configuration>
-->

<tripinfos xmlns:xsi="http://www.w3.org/2001/XMLSchema-instance" xsi:noNamespaceSchemaLocation="http://sumo.dlr.de/xsd/tripinfo_file.xsd">
    <tripinfo id="LV.0" depart="2.40" departLane="entry_1" departPos="126.61" departSpeed="41.64" departDelay="0.00" arrival="121.90" arrivalLane="e0_0" arrivalPos="4800.00" arrivalSpeed="41.64" duration="119.50" routeLength="4873.39" waitingTime="0.00" waitingCount="0" stopTime="0.00" timeLoss="2.40" rerouteNo="0" devices="tripinfo_LV.0 routing_LV.0 ssm_LV.0" vType="vehLVOS594" speedFactor="1.15" vaporized=""/>
    <tripinfo id="CAVToC.1" depart="1.90" departLane="entry_1" departPos="199.90" departSpeed="39.24" departDelay="0.00" arrival="124.40" arrivalLane="e0_0" arrivalPos="4800.00" arrivalSpeed="39.22" duration="122.50" routeLength="4800.10" waitingTime="0.00" waitingCount="0" stopTime="0.00" timeLoss="0.15" rerouteNo="0" devices="tripinfo_CAVToC.1 routing_CAVToC.1 ssm_CAVToC.1 toc_CAVToC.1 driverstateCAVToC.1" vType="vehLVOS570" speedFactor="1.09" vaporized=""/>
    <tripinfo id="CVToC.1" depart="4.00" departLane="entry_1" departPos="111.63" departSpeed="36.44" departDelay="0.00" arrival="131.50" arrivalLane="e0_1" arrivalPos="4800.00" arrivalSpeed="38.57" duration="127.50" routeLength="4888.37" waitingTime="0.00" waitingCount="0" stopTime="0.00" timeLoss="1.10" rerouteNo="0" devices="tripinfo_CVToC.1 routing_CVToC.1 ssm_CVToC.1 toc_CVToC.1 driverstateCVToC.1" vType="vehLVOS974" speedFactor="1.07" vaporized=""/>
    <tripinfo id="CAVToC.0" depart="0.10" departLane="entry_0" departPos="199.90" departSpeed="36.04" departDelay="0.00" arrival="133.40" arrivalLane="e0_0" arrivalPos="4800.00" arrivalSpeed="36.03" duration="133.30" routeLength="4800.10" waitingTime="0.00" waitingCount="0" stopTime="0.00" timeLoss="0.01" rerouteNo="0" devices="tripinfo_CAVToC.0 routing_CAVToC.0 ssm_CAVToC.0 toc_CAVToC.0 driverstateCAVToC.0" vType="vehLVOS610" speedFactor="1.00" vaporized=""/>
    <tripinfo id="CVToC.0" depart="1.80" departLane="entry_0" departPos="182.87" departSpeed="36.26" departDelay="0.00" arrival="134.80" arrivalLane="e0_1" arrivalPos="4800.00" arrivalSpeed="37.16" duration="133.00" routeLength="4817.13" waitingTime="0.00" waitingCount="0" stopTime="0.00" timeLoss="3.48" rerouteNo="0" devices="tripinfo_CVToC.0 routing_CVToC.0 ssm_CVToC.0 toc_CVToC.0 driverstateCVToC.0" vType="vehLVOS323" speedFactor="1.03" vaporized=""/>
    <tripinfo id="LV.1" depart="2.90" departLane="entry_0" departPos="197.62" departSpeed="35.57" departDelay="0.00" arrival="138.10" arrivalLane="e0_0" arrivalPos="4800.00" arrivalSpeed="35.53" duration="135.20" routeLength="4802.38" waitingTime="0.00" waitingCount="0" stopTime="0.00" timeLoss="0.18" rerouteNo="0" devices="tripinfo_LV.1 routing_LV.1 ssm_LV.1" vType="vehLVOS125" speedFactor="0.99" vaporized=""/>
    <tripinfo id="CAVToC.4" depart="6.80" departLane="entry_1" departPos="136.84" departSpeed="37.32" departDelay="0.00" arrival="138.30" arrivalLane="e0_1" arrivalPos="4800.00" arrivalSpeed="37.28" duration="131.50" routeLength="4863.16" waitingTime="0.00" waitingCount="0" stopTime="0.00" timeLoss="1.13" rerouteNo="0" devices="tripinfo_CAVToC.4 routing_CAVToC.4 ssm_CAVToC.4 toc_CAVToC.4 driverstateCAVToC.4" vType="vehLVOS598" speedFactor="1.03" vaporized=""/>
    <tripinfo id="LV.2" depart="8.30" departLane="entry_1" departPos="70.26" departSpeed="39.63" departDelay="0.10" arrival="140.00" arrivalLane="e0_1" arrivalPos="4800.00" arrivalSpeed="39.61" duration="131.70" routeLength="4929.74" waitingTime="0.00" waitingCount="0" stopTime="0.00" timeLoss="7.21" rerouteNo="0" devices="tripinfo_LV.2 routing_LV.2 ssm_LV.2" vType="vehLVOS984" speedFactor="1.10" vaporized=""/>
    <tripinfo id="CAVToC.2" depart="3.20" departLane="entry_0" departPos="121.08" departSpeed="36.18" departDelay="0.00" arrival="140.40" arrivalLane="e0_0" arrivalPos="4800.00" arrivalSpeed="38.55" duration="137.20" routeLength="4878.92" waitingTime="0.00" waitingCount="0" stopTime="0.00" timeLoss="20.65" rerouteNo="0" devices="tripinfo_CAVToC.2 routing_CAVToC.2 ssm_CAVToC.2 toc_CAVToC.2 driverstateCAVToC.2" vType="vehLVOS439" speedFactor="1.16" vaporized=""/>
    <tripinfo id="CVToC.3" depart="10.00" departLane="entry_1" departPos="61.00" departSpeed="35.46" departDelay="0.00" arrival="149.50" arrivalLane="e0_1" arrivalPos="4800.00" arrivalSpeed="35.41" duration="139.50" routeLength="4939.00" waitingTime="0.00" waitingCount="0" stopTime="0.00" timeLoss="0.20" rerouteNo="0" devices="tripinfo_CVToC.3 routing_CVToC.3 ssm_CVToC.3 toc_CVToC.3 driverstateCVToC.3" vType="vehLVOS15" speedFactor="0.98" vaporized=""/>
    <tripinfo id="CAVToC.3" depart="4.20" departLane="entry_0" departPos="85.67" departSpeed="33.73" departDelay="0.00" arrival="150.30" arrivalLane="e0_0" arrivalPos="4800.00" arrivalSpeed="33.65" duration="146.10" routeLength="4914.33" waitingTime="0.00" waitingCount="0" stopTime="0.00" timeLoss="0.31" rerouteNo="0" devices="tripinfo_CAVToC.3 routing_CAVToC.3 ssm_CAVToC.3 toc_CAVToC.3 driverstateCAVToC.3" vType="vehLVOS768" speedFactor="0.93" vaporized=""/>
    <tripinfo id="LV.3" depart="11.10" departLane="entry_0" departPos="14.10" departSpeed="35.84" departDelay="0.70" arrival="153.60" arrivalLane="e0_0" arrivalPos="4800.00" arrivalSpeed="35.79" duration="142.50" routeLength="4985.90" waitingTime="0.00" waitingCount="0" stopTime="0.00" timeLoss="3.39" rerouteNo="0" devices="tripinfo_LV.3 routing_LV.3 ssm_LV.3" vType="vehLVOS369" speedFactor="0.99" vaporized=""/>
    <tripinfo id="CVToC.4" depart="13.20" departLane="entry_1" departPos="11.82" departSpeed="32.87" departDelay="1.30" arrival="154.80" arrivalLane="e0_1" arrivalPos="4800.00" arrivalSpeed="38.27" duration="141.60" routeLength="4988.18" waitingTime="0.00" waitingCount="0" stopTime="0.00" timeLoss="11.53" rerouteNo="0" devices="tripinfo_CVToC.4 routing_CVToC.4 ssm_CVToC.4 toc_CVToC.4 driverstateCVToC.4" vType="vehLVOS690" speedFactor="1.06" vaporized=""/>
    <tripinfo id="CAVToC.7" depart="14.70" departLane="entry_0" departPos="43.38" departSpeed="33.15" departDelay="0.10" arrival="155.70" arrivalLane="e0_1" arrivalPos="4800.00" arrivalSpeed="39.33" duration="141.00" routeLength="4956.62" waitingTime="0.00" waitingCount="0" stopTime="0.00" timeLoss="20.09" rerouteNo="0" devices="tripinfo_CAVToC.7 routing_CAVToC.7 ssm_CAVToC.7 toc_CAVToC.7 driverstateCAVToC.7" vType="vehLVOS851" speedFactor="1.14" vaporized=""/>
    <tripinfo id="CVToC.2" depart="7.90" departLane="entry_0" departPos="59.83" departSpeed="32.79" departDelay="0.00" arrival="156.70" arrivalLane="e0_1" arrivalPos="4800.00" arrivalSpeed="36.92" duration="148.80" routeLength="4940.17" waitingTime="0.00" waitingCount="0" stopTime="0.00" timeLoss="14.91" rerouteNo="0" devices="tripinfo_CVToC.2 routing_CVToC.2 ssm_CVToC.2 toc_CVToC.2 driverstateCVToC.2" vType="vehLVOS536" speedFactor="1.02" vaporized=""/>
    <tripinfo id="CAVToC.5" depart="6.90" departLane="entry_0" departPos="107.96" departSpeed="32.20" departDelay="0.00" arrival="159.60" arrivalLane="e0_0" arrivalPos="4800.00" arrivalSpeed="32.18" duration="152.70" routeLength="4892.04" waitingTime="0.00" waitingCount="0" stopTime="0.00" timeLoss="0.71" rerouteNo="0" devices="tripinfo_CAVToC.5 routing_CAVToC.5 ssm_CAVToC.5 toc_CAVToC.5 driverstateCAVToC.5" vType="vehLVOS174" speedFactor="0.89" vaporized=""/>
    <tripinfo id="CAVToC.6" depart="10.30" departLane="entry_1" departPos="2.20" departSpeed="32.13" departDelay="0.10" arrival="166.00" arrivalLane="e0_0" arrivalPos="4800.00" arrivalSpeed="32.08" duration="155.70" routeLength="4997.80" waitingTime="0.00" waitingCount="0" stopTime="0.00" timeLoss="0.12" rerouteNo="0" devices="tripinfo_CAVToC.6 routing_CAVToC.6 ssm_CAVToC.6 toc_CAVToC.6 driverstateCAVToC.6" vType="vehLVOS2" speedFactor="0.89" vaporized=""/>
    <tripinfo id="CVToC.6" depart="15.50" departLane="entry_1" departPos="26.03" departSpeed="29.55" departDelay="0.20" arrival="184.40" arrivalLane="e0_1" arrivalPos="4800.00" arrivalSpeed="29.43" duration="168.90" routeLength="4973.97" waitingTime="0.00" waitingCount="0" stopTime="0.00" timeLoss="0.50" rerouteNo="0" devices="tripinfo_CVToC.6 routing_CVToC.6 ssm_CVToC.6 toc_CVToC.6 driverstateCVToC.6" vType="vehLVOS198" speedFactor="0.82" vaporized=""/>
    <tripinfo id="CAVToC.8" depart="16.20" departLane="entry_0" departPos="7.27" departSpeed="33.41" departDelay="0.70" arrival="186.60" arrivalLane="e0_0" arrivalPos="4800.00" arrivalSpeed="31.49" duration="170.40" routeLength="4992.73" waitingTime="0.00" waitingCount="0" stopTime="0.00" timeLoss="39.81" rerouteNo="0" devices="tripinfo_CAVToC.8 routing_CAVToC.8 ssm_CAVToC.8 toc_CAVToC.8 driverstateCAVToC.8" vType="vehLVOS757" speedFactor="1.06" vaporized=""/>
    <tripinfo id="CAVToC.9" depart="17.60" departLane="entry_1" departPos="0.51" departSpeed="30.69" departDelay="1.20" arrival="186.90" arrivalLane="e0_1" arrivalPos="4800.00" arrivalSpeed="33.25" duration="169.30" routeLength="4999.49" waitingTime="0.00" waitingCount="0" stopTime="0.00" timeLoss="43.63" rerouteNo="0" devices="tripinfo_CAVToC.9 routing_CAVToC.9 ssm_CAVToC.9 toc_CAVToC.9 driverstateCAVToC.9" vType="vehLVOS668" speedFactor="1.10" vaporized=""/>
    <tripinfo id="CVToC.9" depart="20.40" departLane="entry_1" departPos="3.68" departSpeed="31.33" departDelay="1.70" arrival="188.40" arrivalLane="e0_1" arrivalPos="4800.00" arrivalSpeed="34.29" duration="168.00" routeLength="4996.32" waitingTime="0.00" waitingCount="0" stopTime="0.00" timeLoss="34.37" rerouteNo="0" devices="tripinfo_CVToC.9 routing_CVToC.9 ssm_CVToC.9 toc_CVToC.9 driverstateCVToC.9" vType="vehLVOS642" speedFactor="1.04" vaporized=""/>
    <tripinfo id="CVToC.7" depart="19.10" departLane="entry_0" departPos="4.63" departSpeed="28.15" departDelay="2.50" arrival="188.50" arrivalLane="e0_0" arrivalPos="4800.00" arrivalSpeed="34.31" duration="169.40" routeLength="4995.37" waitingTime="0.00" waitingCount="0" stopTime="0.00" timeLoss="41.09" rerouteNo="0" devices="tripinfo_CVToC.7 routing_CVToC.7 ssm_CVToC.7 toc_CVToC.7 driverstateCVToC.7" vType="vehLVOS83" speedFactor="1.08" vaporized=""/>
    <tripinfo id="CAVToC.10" depart="23.30" departLane="entry_1" departPos="22.63" departSpeed="31.36" departDelay="4.10" arrival="190.10" arrivalLane="e0_1" arrivalPos="4800.00" arrivalSpeed="32.64" duration="166.80" routeLength="4977.37" waitingTime="0.00" waitingCount="0" stopTime="0.00" timeLoss="14.33" rerouteNo="0" devices="tripinfo_CAVToC.10 routing_CAVToC.10 ssm_CAVToC.10 toc_CAVToC.10 driverstateCAVToC.10" vType="vehLVOS546" speedFactor="0.90" vaporized=""/>
    <tripinfo id="CVToC.12" depart="22.00" departLane="entry_0" departPos="0.43" departSpeed="29.08" departDelay="1.00" arrival="190.50" arrivalLane="e0_0" arrivalPos="4800.00" arrivalSpeed="33.47" duration="168.50" routeLength="4999.57" waitingTime="0.00" waitingCount="0" stopTime="0.00" timeLoss="36.45" rerouteNo="0" devices="tripinfo_CVToC.12 routing_CVToC.12 ssm_CVToC.12 toc_CVToC.12 driverstateCVToC.12" vType="vehLVOS848" speedFactor="1.05" vaporized=""/>
    <tripinfo id="CVToC.5" depart="25.60" departLane="entry_1" departPos="2.47" departSpeed="32.37" departDelay="11.00" arrival="193.30" arrivalLane="e0_1" arrivalPos="4800.00" arrivalSpeed="38.97" duration="167.70" routeLength="4997.53" waitingTime="0.00" waitingCount="0" stopTime="0.00" timeLoss="48.91" rerouteNo="0" devices="tripinfo_CVToC.5 routing_CVToC.5 ssm_CVToC.5 toc_CVToC.5 driverstateCVToC.5" vType="vehLVOS265" speedFactor="1.17" vaporized=""/>
    <tripinfo id="CVToC.11" depart="24.80" departLane="entry_0" departPos="0.85" departSpeed="29.68" departDelay="3.90" arrival="193.40" arrivalLane="e0_0" arrivalPos="4800.00" arrivalSpeed="36.16" duration="168.60" routeLength="4999.15" waitingTime="0.00" waitingCount="0" stopTime="0.00" timeLoss="30.36" rerouteNo="0" devices="tripinfo_CVToC.11 routing_CVToC.11 ssm_CVToC.11 toc_CVToC.11 driverstateCVToC.11" vType="vehLVOS108" speedFactor="1.00" vaporized=""/>
    <tripinfo id="CVToC.13" depart="27.90" departLane="entry_1" departPos="3.73" departSpeed="32.05" departDelay="4.20" arrival="194.40" arrivalLane="e0_1" arrivalPos="4800.00" arrivalSpeed="33.76" duration="166.50" routeLength="4996.27" waitingTime="0.00" waitingCount="0" stopTime="0.00" timeLoss="18.60" rerouteNo="0" devices="tripinfo_CVToC.13 routing_CVToC.13 ssm_CVToC.13 toc_CVToC.13 driverstateCVToC.13" vType="vehLVOS234" speedFactor="0.94" vaporized=""/>
    <tripinfo id="CVToC.14" depart="27.60" departLane="entry_0" departPos="0.53" departSpeed="30.29" departDelay="2.60" arrival="195.10" arrivalLane="e0_0" arrivalPos="4800.00" arrivalSpeed="34.89" duration="167.50" routeLength="4999.47" waitingTime="0.00" waitingCount="0" stopTime="0.00" timeLoss="37.19" rerouteNo="0" devices="tripinfo_CVToC.14 routing_CVToC.14 ssm_CVToC.14 toc_CVToC.14 driverstateCVToC.14" vType="vehLVOS8" speedFactor="1.06" vaporized=""/>
    <tripinfo id="CAVToC.12" depart="30.40" departLane="entry_1" departPos="18.77" departSpeed="31.16" departDelay="3.90" arrival="195.80" arrivalLane="e0_1" arrivalPos="4800.00" arrivalSpeed="31.22" duration="165.40" routeLength="4981.23" waitingTime="0.00" waitingCount="0" stopTime="0.00" timeLoss="5.96" rerouteNo="0" devices="tripinfo_CAVToC.12 routing_CAVToC.12 ssm_CAVToC.12 toc_CAVToC.12 driverstateCAVToC.12" vType="vehLVOS421" speedFactor="0.87" vaporized=""/>
    <tripinfo id="CVToC.15" depart="32.50" departLane="entry_1" departPos="7.57" departSpeed="30.96" departDelay="6.10" arrival="198.30" arrivalLane="e0_1" arrivalPos="4800.00" arrivalSpeed="34.14" duration="165.80" routeLength="4992.43" waitingTime="0.00" waitingCount="0" stopTime="0.00" timeLoss="27.24" rerouteNo="0" devices="tripinfo_CVToC.15 routing_CVToC.15 ssm_CVToC.15 toc_CVToC.15 driverstateCVToC.15" vType="vehLVOS895" speedFactor="1.00" vaporized=""/>
    <tripinfo id="CAVToC.11" depart="30.50" departLane="entry_0" departPos="19.63" departSpeed="29.96" departDelay="5.10" arrival="198.50" arrivalLane="e0_0" arrivalPos="4800.00" arrivalSpeed="31.68" duration="168.00" routeLength="4980.37" waitingTime="0.00" waitingCount="0" stopTime="0.00" timeLoss="10.82" rerouteNo="0" devices="tripinfo_CAVToC.11 routing_CAVToC.11 ssm_CAVToC.11 toc_CAVToC.11 driverstateCAVToC.11" vType="vehLVOS298" speedFactor="0.88" vaporized=""/>
    <tripinfo id="CVToC.10" depart="37.60" departLane="entry_1" departPos="1.82" departSpeed="31.11" departDelay="18.00" arrival="199.40" arrivalLane="e0_1" arrivalPos="4800.00" arrivalSpeed="36.01" duration="161.80" routeLength="4998.18" waitingTime="0.00" waitingCount="0" stopTime="0.00" timeLoss="35.93" rerouteNo="0" devices="tripinfo_CVToC.10 routing_CVToC.10 ssm_CVToC.10 toc_CVToC.10 driverstateCVToC.10" vType="vehLVOS822" speedFactor="1.10" vaporized=""/>
    <tripinfo id="CAVToC.13" depart="34.60" departLane="entry_1" departPos="0.93" departSpeed="30.63" departDelay="5.40" arrival="201.50" arrivalLane="e0_0" arrivalPos="4800.00" arrivalSpeed="33.36" duration="166.90" routeLength="4999.07" waitingTime="0.00" waitingCount="0" stopTime="0.00" timeLoss="17.06" rerouteNo="0" devices="tripinfo_CAVToC.13 routing_CAVToC.13 ssm_CAVToC.13 toc_CAVToC.13 driverstateCAVToC.13" vType="vehLVOS245" speedFactor="0.92" vaporized=""/>
    <tripinfo id="CAVToC.14" depart="40.20" departLane="entry_1" departPos="0.01" departSpeed="31.78" departDelay="7.00" arrival="201.60" arrivalLane="e0_1" arrivalPos="4800.00" arrivalSpeed="36.70" duration="161.40" routeLength="4999.99" waitingTime="0.00" waitingCount="0" stopTime="0.00" timeLoss="25.37" rerouteNo="0" devices="tripinfo_CAVToC.14 routing_CAVToC.14 ssm_CAVToC.14 toc_CAVToC.14 driverstateCAVToC.14" vType="vehLVOS120" speedFactor="1.02" vaporized=""/>
    <tripinfo id="CAVToC.15" depart="42.80" departLane="entry_1" departPos="5.03" departSpeed="33.03" departDelay="5.00" arrival="203.50" arrivalLane="e0_1" arrivalPos="4800.00" arrivalSpeed="37.93" duration="160.70" routeLength="4994.97" waitingTime="0.00" waitingCount="0" stopTime="0.00" timeLoss="29.07" rerouteNo="0" devices="tripinfo_CAVToC.15 routing_CAVToC.15 ssm_CAVToC.15 toc_CAVToC.15 driverstateCAVToC.15" vType="vehLVOS933" speedFactor="1.05" vaporized=""/>
    <tripinfo id="CVToC.20" depart="45.20" departLane="entry_1" departPos="9.80" departSpeed="33.80" departDelay="7.60" arrival="206.30" arrivalLane="e0_1" arrivalPos="4800.00" arrivalSpeed="35.84" duration="161.10" routeLength="4990.20" waitingTime="0.00" waitingCount="0" stopTime="0.00" timeLoss="21.92" rerouteNo="0" devices="tripinfo_CVToC.20 routing_CVToC.20 ssm_CVToC.20 toc_CVToC.20 driverstateCVToC.20" vType="vehLVOS875" speedFactor="0.99" vaporized=""/>
    <tripinfo id="CVToC.16" depart="47.70" departLane="entry_1" departPos="2.03" departSpeed="34.72" departDelay="19.30" arrival="207.70" arrivalLane="e0_1" arrivalPos="4800.00" arrivalSpeed="38.01" duration="160.00" routeLength="4997.97" waitingTime="0.00" waitingCount="0" stopTime="0.00" timeLoss="39.92" rerouteNo="0" devices="tripinfo_CVToC.16 routing_CVToC.16 ssm_CVToC.16 toc_CVToC.16 driverstateCVToC.16" vType="vehLVOS203" speedFactor="1.15" vaporized=""/>
    <tripinfo id="CVToC.23" depart="50.20" departLane="entry_1" departPos="2.39" departSpeed="34.93" departDelay="6.00" arrival="208.90" arrivalLane="e0_0" arrivalPos="4800.00" arrivalSpeed="39.30" duration="158.70" routeLength="4997.61" waitingTime="0.00" waitingCount="0" stopTime="0.00" timeLoss="34.75" rerouteNo="0" devices="tripinfo_CVToC.23 routing_CVToC.23 ssm_CVToC.23 toc_CVToC.23 driverstateCVToC.23" vType="vehLVOS975" speedFactor="1.12" vaporized=""/>
    <tripinfo id="LV.7" depart="51.10" departLane="entry_1" departPos="2.17" departSpeed="32.28" departDelay="0.10" arrival="214.10" arrivalLane="e0_1" arrivalPos="4800.00" arrivalSpeed="32.26" duration="163.00" routeLength="4997.83" waitingTime="0.00" waitingCount="0" stopTime="0.00" timeLoss="8.15" rerouteNo="0" devices="tripinfo_LV.7 routing_LV.7 ssm_LV.7" vType="vehLVOS782" speedFactor="0.89" vaporized=""/>
    <tripinfo id="LV.4" depart="32.80" departLane="entry_0" departPos="3.03" departSpeed="28.22" departDelay="4.40" arrival="216.40" arrivalLane="e0_0" arrivalPos="4800.00" arrivalSpeed="28.21" duration="183.60" routeLength="4996.97" waitingTime="0.00" waitingCount="0" stopTime="0.00" timeLoss="6.47" rerouteNo="0" devices="tripinfo_LV.4 routing_LV.4 ssm_LV.4" vType="vehLVOS592" speedFactor="0.78" vaporized=""/>
    <tripinfo id="CVToC.17" depart="35.50" departLane="entry_0" departPos="7.46" departSpeed="28.43" departDelay="4.40" arrival="218.40" arrivalLane="e0_0" arrivalPos="4800.00" arrivalSpeed="31.72" duration="182.90" routeLength="4992.54" waitingTime="0.00" waitingCount="0" stopTime="0.00" timeLoss="25.68" rerouteNo="0" devices="tripinfo_CVToC.17 routing_CVToC.17 ssm_CVToC.17 toc_CVToC.17 driverstateCVToC.17" vType="vehLVOS879" speedFactor="0.88" vaporized=""/>
    <tripinfo id="CVToC.25" depart="53.70" departLane="entry_1" departPos="14.38" departSpeed="31.91" departDelay="7.20" arrival="218.90" arrivalLane="e0_1" arrivalPos="4800.00" arrivalSpeed="33.57" duration="165.20" routeLength="4985.62" waitingTime="0.00" waitingCount="0" stopTime="0.00" timeLoss="16.92" rerouteNo="0" devices="tripinfo_CVToC.25 routing_CVToC.25 ssm_CVToC.25 toc_CVToC.25 driverstateCVToC.25" vType="vehLVOS574" speedFactor="0.93" vaporized=""/>
    <tripinfo id="CVToC.19" depart="38.40" departLane="entry_0" departPos="17.11" departSpeed="28.99" departDelay="2.60" arrival="219.30" arrivalLane="e0_0" arrivalPos="4800.00" arrivalSpeed="31.69" duration="180.90" routeLength="4982.89" waitingTime="0.00" waitingCount="0" stopTime="0.00" timeLoss="34.35" rerouteNo="0" devices="tripinfo_CVToC.19 routing_CVToC.19 ssm_CVToC.19 toc_CVToC.19 driverstateCVToC.19" vType="vehLVOS507" speedFactor="0.94" vaporized=""/>
    <tripinfo id="CVToC.26" depart="58.60" departLane="entry_1" departPos="5.38" departSpeed="30.11" departDelay="10.90" arrival="219.80" arrivalLane="e0_1" arrivalPos="4800.00" arrivalSpeed="35.07" duration="161.20" routeLength="4994.62" waitingTime="0.00" waitingCount="0" stopTime="0.00" timeLoss="45.11" rerouteNo="0" devices="tripinfo_CVToC.26 routing_CVToC.26 ssm_CVToC.26 toc_CVToC.26 driverstateCVToC.26" vType="vehLVOS478" speedFactor="1.19" vaporized=""/>
    <tripinfo id="CVToC.18" depart="41.10" departLane="entry_0" departPos="16.43" departSpeed="29.29" departDelay="7.30" arrival="220.20" arrivalLane="e0_0" arrivalPos="4800.00" arrivalSpeed="31.94" duration="179.10" routeLength="4983.57" waitingTime="0.00" waitingCount="0" stopTime="0.00" timeLoss="44.87" rerouteNo="0" devices="tripinfo_CVToC.18 routing_CVToC.18 ssm_CVToC.18 toc_CVToC.18 driverstateCVToC.18" vType="vehLVOS391" speedFactor="1.03" vaporized=""/>
    <tripinfo id="CVToC.27" depart="61.90" departLane="entry_1" departPos="20.64" departSpeed="30.97" departDelay="7.80" arrival="221.70" arrivalLane="e0_1" arrivalPos="4800.00" arrivalSpeed="38.01" duration="159.80" routeLength="4979.36" waitingTime="0.00" waitingCount="0" stopTime="0.00" timeLoss="35.59" rerouteNo="0" devices="tripinfo_CVToC.27 routing_CVToC.27 ssm_CVToC.27 toc_CVToC.27 driverstateCVToC.27" vType="vehLVOS663" speedFactor="1.11" vaporized=""/>
    <tripinfo id="CVToC.22" depart="43.60" departLane="entry_0" departPos="2.02" departSpeed="29.62" departDelay="1.20" arrival="222.90" arrivalLane="e0_0" arrivalPos="4800.00" arrivalSpeed="37.17" duration="179.30" routeLength="4997.98" waitingTime="0.00" waitingCount="0" stopTime="0.00" timeLoss="51.59" rerouteNo="0" devices="tripinfo_CVToC.22 routing_CVToC.22 ssm_CVToC.22 toc_CVToC.22 driverstateCVToC.22" vType="vehLVOS172" speedFactor="1.08" vaporized=""/>
    <tripinfo id="LV.5" depart="65.90" departLane="entry_1" departPos="5.60" departSpeed="38.10" departDelay="21.50" arrival="224.10" arrivalLane="e0_1" arrivalPos="4800.00" arrivalSpeed="38.08" duration="158.20" routeLength="4994.40" waitingTime="0.00" waitingCount="0" stopTime="0.00" timeLoss="27.07" rerouteNo="0" devices="tripinfo_LV.5 routing_LV.5 ssm_LV.5" vType="vehLVOS890" speedFactor="1.06" vaporized=""/>
    <tripinfo id="CAVToC.16" depart="46.40" departLane="entry_0" departPos="11.13" departSpeed="29.07" departDelay="2.70" arrival="224.20" arrivalLane="e0_0" arrivalPos="4800.00" arrivalSpeed="33.13" duration="177.80" routeLength="4988.87" waitingTime="0.00" waitingCount="0" stopTime="0.00" timeLoss="27.74" rerouteNo="0" devices="tripinfo_CAVToC.16 routing_CAVToC.16 ssm_CAVToC.16 toc_CAVToC.16 driverstateCAVToC.16" vType="vehLVOS684" speedFactor="0.92" vaporized=""/>
    <tripinfo id="LV.9" depart="67.40" departLane="entry_1" departPos="0.07" departSpeed="38.35" departDelay="9.60" arrival="225.60" arrivalLane="e0_1" arrivalPos="4800.00" arrivalSpeed="38.33" duration="158.20" routeLength="4999.93" waitingTime="0.00" waitingCount="0" stopTime="0.00" timeLoss="27.79" rerouteNo="0" devices="tripinfo_LV.9 routing_LV.9 ssm_LV.9" vType="vehLVOS573" speedFactor="1.06" vaporized=""/>
    <tripinfo id="CVToC.21" depart="49.00" departLane="entry_0" departPos="8.96" departSpeed="29.29" departDelay="9.90" arrival="225.80" arrivalLane="e0_0" arrivalPos="4800.00" arrivalSpeed="35.32" duration="176.80" routeLength="4991.04" waitingTime="0.00" waitingCount="0" stopTime="0.00" timeLoss="36.81" rerouteNo="0" devices="tripinfo_CVToC.21 routing_CVToC.21 ssm_CVToC.21 toc_CVToC.21 driverstateCVToC.21" vType="vehLVOS680" speedFactor="0.99" vaporized=""/>
    <tripinfo id="LV.12" depart="68.90" departLane="entry_1" departPos="40.13" departSpeed="36.20" departDelay="4.90" arrival="226.50" arrivalLane="e0_1" arrivalPos="4800.00" arrivalSpeed="36.18" duration="157.60" routeLength="4959.87" waitingTime="0.00" waitingCount="0" stopTime="0.00" timeLoss="20.52" rerouteNo="0" devices="tripinfo_LV.12 routing_LV.12 ssm_LV.12" vType="vehLVOS648" speedFactor="1.00" vaporized=""/>
    <tripinfo id="CAVToC.20" depart="63.70" departLane="entry_0" departPos="4.43" departSpeed="30.54" departDelay="6.80" arrival="228.10" arrivalLane="e0_1" arrivalPos="4800.00" arrivalSpeed="36.03" duration="164.40" routeLength="4995.57" waitingTime="0.00" waitingCount="0" stopTime="0.00" timeLoss="25.75" rerouteNo="0" devices="tripinfo_CAVToC.20 routing_CAVToC.20 ssm_CAVToC.20 toc_CAVToC.20 driverstateCAVToC.20" vType="vehLVOS163" speedFactor="1.00" vaporized=""/>
    <tripinfo id="CAVToC.25" depart="71.70" departLane="entry_1" departPos="71.02" departSpeed="34.09" departDelay="8.70" arrival="230.10" arrivalLane="e0_1" arrivalPos="4800.00" arrivalSpeed="34.06" duration="158.40" routeLength="4928.98" waitingTime="0.00" waitingCount="0" stopTime="0.00" timeLoss="13.76" rerouteNo="0" devices="tripinfo_CAVToC.25 routing_CAVToC.25 ssm_CAVToC.25 toc_CAVToC.25 driverstateCAVToC.25" vType="vehLVOS845" speedFactor="0.94" vaporized=""/>
    <tripinfo id="CAVToC.17" depart="55.70" departLane="entry_1" departPos="14.35" departSpeed="28.57" departDelay="4.40" arrival="231.90" arrivalLane="e0_0" arrivalPos="4800.00" arrivalSpeed="28.42" duration="176.20" routeLength="4985.65" waitingTime="0.00" waitingCount="0" stopTime="0.00" timeLoss="1.66" rerouteNo="0" devices="tripinfo_CAVToC.17 routing_CAVToC.17 ssm_CAVToC.17 toc_CAVToC.17 driverstateCAVToC.17" vType="vehLVOS274" speedFactor="0.79" vaporized=""/>
    <tripinfo id="CVToC.28" depart="72.30" departLane="entry_1" departPos="6.47" departSpeed="34.63" departDelay="10.00" arrival="233.00" arrivalLane="e0_1" arrivalPos="4800.00" arrivalSpeed="38.24" duration="160.70" routeLength="4993.53" waitingTime="0.00" waitingCount="0" stopTime="0.00" timeLoss="30.09" rerouteNo="0" devices="tripinfo_CVToC.28 routing_CVToC.28 ssm_CVToC.28 toc_CVToC.28 driverstateCVToC.28" vType="vehLVOS112" speedFactor="1.06" vaporized=""/>
    <tripinfo id="CVToC.8" depart="52.10" departLane="entry_0" departPos="2.31" departSpeed="30.94" departDelay="35.10" arrival="233.20" arrivalLane="e0_0" arrivalPos="4800.00" arrivalSpeed="30.03" duration="181.10" routeLength="4997.69" waitingTime="0.00" waitingCount="0" stopTime="0.00" timeLoss="71.89" rerouteNo="0" devices="tripinfo_CVToC.8 routing_CVToC.8 ssm_CVToC.8 toc_CVToC.8 driverstateCVToC.8" vType="vehLVOS15" speedFactor="1.27" vaporized=""/>
    <tripinfo id="LV.8" depart="75.70" departLane="entry_1" departPos="11.19" departSpeed="40.22" departDelay="21.60" arrival="234.00" arrivalLane="e0_1" arrivalPos="4800.00" arrivalSpeed="39.20" duration="158.30" routeLength="4988.81" waitingTime="0.00" waitingCount="0" stopTime="0.00" timeLoss="34.25" rerouteNo="0" devices="tripinfo_LV.8 routing_LV.8 ssm_LV.8" vType="vehLVOS981" speedFactor="1.11" vaporized=""/>
    <tripinfo id="LV.11" depart="77.30" departLane="entry_1" departPos="22.94" departSpeed="40.49" departDelay="16.00" arrival="234.80" arrivalLane="e0_1" arrivalPos="4800.00" arrivalSpeed="39.66" duration="157.50" routeLength="4977.06" waitingTime="0.00" waitingCount="0" stopTime="0.00" timeLoss="34.53" rerouteNo="0" devices="tripinfo_LV.11 routing_LV.11 ssm_LV.11" vType="vehLVOS514" speedFactor="1.12" vaporized=""/>
    <tripinfo id="LV.10" depart="78.50" departLane="entry_1" departPos="1.53" departSpeed="41.94" departDelay="19.80" arrival="236.10" arrivalLane="e0_1" arrivalPos="4800.00" arrivalSpeed="41.67" duration="157.60" routeLength="4998.47" waitingTime="0.00" waitingCount="0" stopTime="0.00" timeLoss="38.40" rerouteNo="0" devices="tripinfo_LV.10 routing_LV.10 ssm_LV.10" vType="vehLVOS445" speedFactor="1.16" vaporized=""/>
    <tripinfo id="CVToC.24" depart="55.60" departLane="entry_0" departPos="11.43" departSpeed="29.94" departDelay="10.10" arrival="237.10" arrivalLane="e0_0" arrivalPos="4800.00" arrivalSpeed="38.28" duration="181.50" routeLength="4988.57" waitingTime="0.00" waitingCount="0" stopTime="0.00" timeLoss="61.74" rerouteNo="0" devices="tripinfo_CVToC.24 routing_CVToC.24 ssm_CVToC.24 toc_CVToC.24 driverstateCVToC.24" vType="vehLVOS243" speedFactor="1.15" vaporized=""/>
    <tripinfo id="LV.13" depart="80.00" departLane="entry_1" departPos="12.66" departSpeed="40.09" departDelay="15.90" arrival="237.80" arrivalLane="e0_1" arrivalPos="4800.00" arrivalSpeed="40.01" duration="157.80" routeLength="4987.34" waitingTime="0.00" waitingCount="0" stopTime="0.00" timeLoss="33.36" rerouteNo="0" devices="tripinfo_LV.13 routing_LV.13 ssm_LV.13" vType="vehLVOS563" speedFactor="1.11" vaporized=""/>