<?xml version="1.0" encoding="UTF-8"?>

<!-- generated on Fri Jun 12 15:45:56 2020 by Eclipse SUMO Version v1_5_0+0820-fb638dbcbf
<configuration xmlns:xsi="http://www.w3.org/2001/XMLSchema-instance" xsi:noNamespaceSchemaLocation="http://sumo.dlr.de/xsd/sumoConfiguration.xsd">

    <input>
        <net-file value="UC5_1.net.xml"/>
        <route-files value="routes_trafficMix_0_trafficDemand_1_driverBehaviour_OS_seed_0.xml"/>
        <additional-files value="additionalsOutput_trafficMix_0_trafficDemand_1_driverBehaviour_OS_seed_0.xml,vTypesCAVToC_OS.add.xml,vTypesCVToC_OS.add.xml,vTypesLV_OS.add.xml,../shapes.add.xml,../view.add.xml"/>
    </input>

    <output>
        <tripinfo-output value="/home/anoulis/workspace/tor-distribution/outputs/simulations/runner//tripinfo_5.xml"/>
    </output>

    <time>
        <step-length value="0.1"/>
    </time>

    <processing>
        <step-method.ballistic value="true"/>
        <ignore-route-errors value="true"/>
        <lanechange.duration value="2.5"/>
    </processing>

    <report>
        <no-step-log value="true"/>
    </report>

    <toc_device>
        <device.toc.ogNewTimeHeadway value="100"/>
        <device.toc.ogNewSpaceHeadway value="5"/>
        <device.toc.ogMaxDecel value="1"/>
        <device.toc.ogChangeRate value="1"/>
    </toc_device>

    <traci_server>
        <remote-port value="48891"/>
    </traci_server>

    <random_number>
        <seed value="1029"/>
    </random_number>

    <gui_only>
        <tracker-interval value="0.1"/>
    </gui_only>

</configuration>
-->

<tripinfos xmlns:xsi="http://www.w3.org/2001/XMLSchema-instance" xsi:noNamespaceSchemaLocation="http://sumo.dlr.de/xsd/tripinfo_file.xsd">
    <tripinfo id="CVToC.0" depart="6.40" departLane="entry_0" departPos="199.90" departSpeed="40.78" departDelay="0.00" arrival="124.30" arrivalLane="e0_0" arrivalPos="4800.00" arrivalSpeed="40.68" duration="117.90" routeLength="4800.10" waitingTime="0.00" waitingCount="0" stopTime="0.00" timeLoss="0.16" rerouteNo="0" devices="tripinfo_CVToC.0 routing_CVToC.0 ssm_CVToC.0 toc_CVToC.0 driverstateCVToC.0" vType="vehLVOS899" speedFactor="1.13" vaporized=""/>
    <tripinfo id="CVToC.1" depart="7.60" departLane="entry_1" departPos="199.90" departSpeed="33.37" departDelay="0.00" arrival="151.60" arrivalLane="e0_1" arrivalPos="4800.00" arrivalSpeed="33.36" duration="144.00" routeLength="4800.10" waitingTime="0.00" waitingCount="0" stopTime="0.00" timeLoss="0.16" rerouteNo="0" devices="tripinfo_CVToC.1 routing_CVToC.1 ssm_CVToC.1 toc_CVToC.1 driverstateCVToC.1" vType="vehLVOS940" speedFactor="0.92" vaporized=""/>
    <tripinfo id="CVToC.2" depart="8.10" departLane="entry_0" departPos="192.80" departSpeed="36.48" departDelay="0.00" arrival="152.30" arrivalLane="e0_0" arrivalPos="4800.00" arrivalSpeed="34.46" duration="144.20" routeLength="4807.20" waitingTime="0.00" waitingCount="0" stopTime="0.00" timeLoss="12.35" rerouteNo="0" devices="tripinfo_CVToC.2 routing_CVToC.2 ssm_CVToC.2 toc_CVToC.2 driverstateCVToC.2" vType="vehLVOS335" speedFactor="1.01" vaporized=""/>
    <tripinfo id="CVToC.3" depart="11.40" departLane="entry_1" departPos="199.90" departSpeed="35.18" departDelay="0.00" arrival="152.60" arrivalLane="e0_1" arrivalPos="4800.00" arrivalSpeed="34.45" duration="141.20" routeLength="4800.10" waitingTime="0.00" waitingCount="0" stopTime="0.00" timeLoss="4.66" rerouteNo="0" devices="tripinfo_CVToC.3 routing_CVToC.3 ssm_CVToC.3 toc_CVToC.3 driverstateCVToC.3" vType="vehLVOS495" speedFactor="0.97" vaporized=""/>
    <tripinfo id="CVToC.4" depart="11.60" departLane="entry_0" departPos="199.90" departSpeed="34.89" departDelay="0.00" arrival="153.20" arrivalLane="e0_0" arrivalPos="4800.00" arrivalSpeed="34.85" duration="141.60" routeLength="4800.10" waitingTime="0.00" waitingCount="0" stopTime="0.00" timeLoss="3.96" rerouteNo="0" devices="tripinfo_CVToC.4 routing_CVToC.4 ssm_CVToC.4 toc_CVToC.4 driverstateCVToC.4" vType="vehLVOS660" speedFactor="0.97" vaporized=""/>
    <tripinfo id="CAVToC.0" depart="11.90" departLane="entry_0" departPos="138.90" departSpeed="35.02" departDelay="0.00" arrival="155.00" arrivalLane="e0_0" arrivalPos="4800.00" arrivalSpeed="35.06" duration="143.10" routeLength="4861.10" waitingTime="0.00" waitingCount="0" stopTime="0.00" timeLoss="4.83" rerouteNo="0" devices="tripinfo_CAVToC.0 routing_CAVToC.0 ssm_CAVToC.0 toc_CAVToC.0 driverstateCAVToC.0" vType="vehLVOS675" speedFactor="0.97" vaporized=""/>
    <tripinfo id="CVToC.5" depart="12.80" departLane="entry_0" departPos="99.57" departSpeed="34.90" departDelay="0.00" arrival="155.50" arrivalLane="e0_1" arrivalPos="4800.00" arrivalSpeed="34.90" duration="142.70" routeLength="4900.43" waitingTime="0.00" waitingCount="0" stopTime="0.00" timeLoss="2.28" rerouteNo="0" devices="tripinfo_CVToC.5 routing_CVToC.5 ssm_CVToC.5 toc_CVToC.5 driverstateCVToC.5" vType="vehLVOS939" speedFactor="0.97" vaporized=""/>
    <tripinfo id="CAVToC.1" depart="14.70" departLane="entry_1" departPos="82.74" departSpeed="35.43" departDelay="0.00" arrival="156.30" arrivalLane="e0_1" arrivalPos="4800.00" arrivalSpeed="35.96" duration="141.60" routeLength="4917.26" waitingTime="0.00" waitingCount="0" stopTime="0.00" timeLoss="16.03" rerouteNo="0" devices="tripinfo_CAVToC.1 routing_CAVToC.1 ssm_CAVToC.1 toc_CAVToC.1 driverstateCAVToC.1" vType="vehLVOS358" speedFactor="1.08" vaporized=""/>
    <tripinfo id="CAVToC.2" depart="15.00" departLane="entry_0" departPos="86.03" departSpeed="35.69" departDelay="0.00" arrival="157.60" arrivalLane="e0_0" arrivalPos="4800.00" arrivalSpeed="37.85" duration="142.60" routeLength="4913.97" waitingTime="0.00" waitingCount="0" stopTime="0.00" timeLoss="24.32" rerouteNo="0" devices="tripinfo_CAVToC.2 routing_CAVToC.2 ssm_CAVToC.2 toc_CAVToC.2 driverstateCAVToC.2" vType="vehLVOS879" speedFactor="1.15" vaporized=""/>
    <tripinfo id="LV.0" depart="17.20" departLane="entry_0" departPos="8.98" departSpeed="43.56" departDelay="0.40" arrival="158.40" arrivalLane="e0_1" arrivalPos="4800.00" arrivalSpeed="37.72" duration="141.20" routeLength="4991.02" waitingTime="0.00" waitingCount="0" stopTime="0.00" timeLoss="26.56" rerouteNo="0" devices="tripinfo_LV.0 routing_LV.0 ssm_LV.0" vType="vehLVOS518" speedFactor="1.21" vaporized=""/>
    <tripinfo id="CAVToC.7" depart="22.00" departLane="entry_1" departPos="6.45" departSpeed="31.13" departDelay="0.10" arrival="160.00" arrivalLane="e0_1" arrivalPos="4800.00" arrivalSpeed="37.79" duration="138.00" routeLength="4993.55" waitingTime="0.00" waitingCount="0" stopTime="0.00" timeLoss="22.99" rerouteNo="0" devices="tripinfo_CAVToC.7 routing_CAVToC.7 ssm_CAVToC.7 toc_CAVToC.7 driverstateCAVToC.7" vType="vehLVOS224" speedFactor="1.20" vaporized=""/>
    <tripinfo id="CAVToC.3" depart="15.60" departLane="entry_1" departPos="39.44" departSpeed="34.09" departDelay="0.00" arrival="163.50" arrivalLane="e0_0" arrivalPos="4800.00" arrivalSpeed="34.08" duration="147.90" routeLength="4960.56" waitingTime="0.00" waitingCount="0" stopTime="0.00" timeLoss="2.38" rerouteNo="0" devices="tripinfo_CAVToC.3 routing_CAVToC.3 ssm_CAVToC.3 toc_CAVToC.3 driverstateCAVToC.3" vType="vehLVOS705" speedFactor="0.94" vaporized=""/>
    <tripinfo id="CAVToC.4" depart="17.20" departLane="entry_1" departPos="26.40" departSpeed="33.23" departDelay="0.00" arrival="168.60" arrivalLane="e0_0" arrivalPos="4800.00" arrivalSpeed="33.23" duration="151.40" routeLength="4973.60" waitingTime="0.00" waitingCount="0" stopTime="0.00" timeLoss="1.69" rerouteNo="0" devices="tripinfo_CAVToC.4 routing_CAVToC.4 ssm_CAVToC.4 toc_CAVToC.4 driverstateCAVToC.4" vType="vehLVOS162" speedFactor="0.92" vaporized=""/>
    <tripinfo id="CAVToC.5" depart="20.90" departLane="entry_1" departPos="68.37" departSpeed="29.71" departDelay="0.00" arrival="173.60" arrivalLane="e0_0" arrivalPos="4800.00" arrivalSpeed="32.54" duration="152.70" routeLength="4931.63" waitingTime="0.00" waitingCount="0" stopTime="0.00" timeLoss="1.10" rerouteNo="0" devices="tripinfo_CAVToC.5 routing_CAVToC.5 ssm_CAVToC.5 toc_CAVToC.5 driverstateCAVToC.5" vType="vehLVOS907" speedFactor="0.90" vaporized=""/>
    <tripinfo id="LV.3" depart="22.80" departLane="entry_0" departPos="4.45" departSpeed="33.01" departDelay="0.20" arrival="179.40" arrivalLane="e0_1" arrivalPos="4800.00" arrivalSpeed="32.96" duration="156.60" routeLength="4995.55" waitingTime="0.00" waitingCount="0" stopTime="0.00" timeLoss="5.19" rerouteNo="0" devices="tripinfo_LV.3 routing_LV.3 ssm_LV.3" vType="vehLVOS870" speedFactor="0.91" vaporized=""/>
    <tripinfo id="CVToC.6" depart="24.10" departLane="entry_1" departPos="1.66" departSpeed="31.20" departDelay="1.00" arrival="179.60" arrivalLane="e0_0" arrivalPos="4800.00" arrivalSpeed="32.39" duration="155.50" routeLength="4998.34" waitingTime="0.00" waitingCount="0" stopTime="0.00" timeLoss="1.30" rerouteNo="0" devices="tripinfo_CVToC.6 routing_CVToC.6 ssm_CVToC.6 toc_CVToC.6 driverstateCVToC.6" vType="vehLVOS168" speedFactor="0.90" vaporized=""/>
    <tripinfo id="CAVToC.8" depart="27.20" departLane="entry_1" departPos="25.78" departSpeed="31.25" departDelay="0.00" arrival="182.50" arrivalLane="e0_0" arrivalPos="4800.00" arrivalSpeed="33.14" duration="155.30" routeLength="4974.22" waitingTime="0.00" waitingCount="0" stopTime="0.00" timeLoss="5.22" rerouteNo="0" devices="tripinfo_CAVToC.8 routing_CAVToC.8 ssm_CAVToC.8 toc_CAVToC.8 driverstateCAVToC.8" vType="vehLVOS471" speedFactor="0.92" vaporized=""/>
    <tripinfo id="CAVToC.9" depart="29.40" departLane="entry_1" departPos="13.80" departSpeed="31.90" departDelay="0.50" arrival="184.10" arrivalLane="e0_1" arrivalPos="4800.00" arrivalSpeed="35.75" duration="154.70" routeLength="4986.20" waitingTime="0.00" waitingCount="0" stopTime="0.00" timeLoss="25.14" rerouteNo="0" devices="tripinfo_CAVToC.9 routing_CAVToC.9 ssm_CAVToC.9 toc_CAVToC.9 driverstateCAVToC.9" vType="vehLVOS750" speedFactor="1.07" vaporized=""/>
    <tripinfo id="LV.2" depart="20.40" departLane="entry_1" departPos="125.15" departSpeed="29.31" departDelay="0.00" arrival="187.10" arrivalLane="e0_0" arrivalPos="4800.00" arrivalSpeed="29.30" duration="166.70" routeLength="4874.85" waitingTime="0.00" waitingCount="0" stopTime="0.00" timeLoss="0.31" rerouteNo="0" devices="tripinfo_LV.2 routing_LV.2 ssm_LV.2" vType="vehLVOS419" speedFactor="0.81" vaporized=""/>
    <tripinfo id="CVToC.9" depart="30.90" departLane="entry_0" departPos="4.92" departSpeed="28.42" departDelay="1.50" arrival="187.20" arrivalLane="e0_1" arrivalPos="4800.00" arrivalSpeed="33.85" duration="156.30" routeLength="4995.08" waitingTime="0.00" waitingCount="0" stopTime="0.00" timeLoss="8.67" rerouteNo="0" devices="tripinfo_CVToC.9 routing_CVToC.9 ssm_CVToC.9 toc_CVToC.9 driverstateCVToC.9" vType="vehLVOS158" speedFactor="0.94" vaporized=""/>
    <tripinfo id="CVToC.8" depart="28.10" departLane="entry_0" departPos="0.66" departSpeed="29.08" departDelay="0.40" arrival="188.60" arrivalLane="e0_1" arrivalPos="4800.00" arrivalSpeed="36.53" duration="160.50" routeLength="4999.34" waitingTime="0.00" waitingCount="0" stopTime="0.00" timeLoss="25.05" rerouteNo="0" devices="tripinfo_CVToC.8 routing_CVToC.8 ssm_CVToC.8 toc_CVToC.8 driverstateCVToC.8" vType="vehLVOS255" speedFactor="1.02" vaporized=""/>
    <tripinfo id="CAVToC.6" depart="21.70" departLane="entry_0" departPos="52.53" departSpeed="26.77" departDelay="0.00" arrival="191.70" arrivalLane="e0_1" arrivalPos="4800.00" arrivalSpeed="38.99" duration="170.00" routeLength="4947.47" waitingTime="0.00" waitingCount="0" stopTime="0.00" timeLoss="43.12" rerouteNo="0" devices="tripinfo_CAVToC.6 routing_CAVToC.6 ssm_CAVToC.6 toc_CAVToC.6 driverstateCAVToC.6" vType="vehLVOS533" speedFactor="1.08" vaporized=""/>
    <tripinfo id="CAVToC.10" depart="33.90" departLane="entry_1" departPos="1.26" departSpeed="30.68" departDelay="4.10" arrival="197.00" arrivalLane="e0_1" arrivalPos="4800.00" arrivalSpeed="38.76" duration="163.10" routeLength="4998.74" waitingTime="0.00" waitingCount="0" stopTime="0.00" timeLoss="34.39" rerouteNo="0" devices="tripinfo_CAVToC.10 routing_CAVToC.10 ssm_CAVToC.10 toc_CAVToC.10 driverstateCAVToC.10" vType="vehLVOS998" speedFactor="1.08" vaporized=""/>
    <tripinfo id="CVToC.11" depart="37.20" departLane="entry_1" departPos="12.25" departSpeed="31.68" departDelay="5.00" arrival="199.80" arrivalLane="e0_1" arrivalPos="4800.00" arrivalSpeed="41.35" duration="162.60" routeLength="4987.75" waitingTime="0.00" waitingCount="0" stopTime="0.00" timeLoss="41.97" rerouteNo="0" devices="tripinfo_CVToC.11 routing_CVToC.11 ssm_CVToC.11 toc_CVToC.11 driverstateCVToC.11" vType="vehLVOS162" speedFactor="1.15" vaporized=""/>
    <tripinfo id="CVToC.13" depart="39.50" departLane="entry_1" departPos="1.29" departSpeed="32.06" departDelay="3.80" arrival="201.90" arrivalLane="e0_0" arrivalPos="4800.00" arrivalSpeed="37.29" duration="162.40" routeLength="4998.71" waitingTime="0.00" waitingCount="0" stopTime="0.00" timeLoss="28.46" rerouteNo="0" devices="tripinfo_CVToC.13 routing_CVToC.13 ssm_CVToC.13 toc_CVToC.13 driverstateCVToC.13" vType="vehLVOS537" speedFactor="1.03" vaporized=""/>
    <tripinfo id="CAVToC.11" depart="31.40" departLane="entry_1" departPos="14.83" departSpeed="29.60" departDelay="0.80" arrival="205.10" arrivalLane="e0_0" arrivalPos="4800.00" arrivalSpeed="29.58" duration="173.70" routeLength="4985.17" waitingTime="0.00" waitingCount="0" stopTime="0.00" timeLoss="5.28" rerouteNo="0" devices="tripinfo_CAVToC.11 routing_CAVToC.11 ssm_CAVToC.11 toc_CAVToC.11 driverstateCAVToC.11" vType="vehLVOS476" speedFactor="0.82" vaporized=""/>
    <tripinfo id="CAVToC.15" depart="41.80" departLane="entry_1" departPos="12.56" departSpeed="29.84" departDelay="3.80" arrival="214.00" arrivalLane="e0_1" arrivalPos="4800.00" arrivalSpeed="29.81" duration="172.20" routeLength="4987.44" waitingTime="0.00" waitingCount="0" stopTime="0.00" timeLoss="5.07" rerouteNo="0" devices="tripinfo_CAVToC.15 routing_CAVToC.15 ssm_CAVToC.15 toc_CAVToC.15 driverstateCAVToC.15" vType="vehLVOS676" speedFactor="0.83" vaporized=""/>
    <tripinfo id="LV.1" depart="18.90" departLane="entry_0" departPos="71.16" departSpeed="25.27" departDelay="0.00" arrival="214.20" arrivalLane="e0_0" arrivalPos="4800.00" arrivalSpeed="25.24" duration="195.30" routeLength="4928.84" waitingTime="0.00" waitingCount="0" stopTime="0.00" timeLoss="0.17" rerouteNo="0" devices="tripinfo_LV.1 routing_LV.1 ssm_LV.1" vType="vehLVOS909" speedFactor="0.70" vaporized=""/>
    <tripinfo id="CAVToC.14" depart="44.80" departLane="entry_1" departPos="24.03" departSpeed="30.18" departDelay="8.30" arrival="214.90" arrivalLane="e0_1" arrivalPos="4800.00" arrivalSpeed="31.48" duration="170.10" routeLength="4975.97" waitingTime="0.00" waitingCount="0" stopTime="0.00" timeLoss="27.67" rerouteNo="0" devices="tripinfo_CAVToC.14 routing_CAVToC.14 ssm_CAVToC.14 toc_CAVToC.14 driverstateCAVToC.14" vType="vehLVOS903" speedFactor="0.97" vaporized=""/>
    <tripinfo id="CVToC.16" depart="47.20" departLane="entry_1" departPos="22.02" departSpeed="29.69" departDelay="6.80" arrival="215.80" arrivalLane="e0_1" arrivalPos="4800.00" arrivalSpeed="33.15" duration="168.60" routeLength="4977.98" waitingTime="0.00" waitingCount="0" stopTime="0.00" timeLoss="21.52" rerouteNo="0" devices="tripinfo_CVToC.16 routing_CVToC.16 ssm_CVToC.16 toc_CVToC.16 driverstateCVToC.16" vType="vehLVOS319" speedFactor="0.94" vaporized=""/>
    <tripinfo id="CVToC.7" depart="25.60" departLane="entry_0" departPos="6.69" departSpeed="31.92" departDelay="1.10" arrival="217.30" arrivalLane="e0_0" arrivalPos="4800.00" arrivalSpeed="30.58" duration="191.70" routeLength="4993.31" waitingTime="0.00" waitingCount="0" stopTime="0.00" timeLoss="70.25" rerouteNo="0" devices="tripinfo_CVToC.7 routing_CVToC.7 ssm_CVToC.7 toc_CVToC.7 driverstateCVToC.7" vType="vehLVOS534" speedFactor="1.14" vaporized=""/>
    <tripinfo id="CVToC.18" depart="49.20" departLane="entry_1" departPos="5.73" departSpeed="29.48" departDelay="5.90" arrival="218.40" arrivalLane="e0_1" arrivalPos="4800.00" arrivalSpeed="34.52" duration="169.20" routeLength="4994.27" waitingTime="0.00" waitingCount="0" stopTime="0.00" timeLoss="24.79" rerouteNo="0" devices="tripinfo_CVToC.18 routing_CVToC.18 ssm_CVToC.18 toc_CVToC.18 driverstateCVToC.18" vType="vehLVOS265" speedFactor="0.96" vaporized=""/>
    <tripinfo id="CVToC.10" depart="33.50" departLane="entry_0" departPos="11.59" departSpeed="28.96" departDelay="2.70" arrival="219.00" arrivalLane="e0_0" arrivalPos="4800.00" arrivalSpeed="30.06" duration="185.50" routeLength="4988.41" waitingTime="0.00" waitingCount="0" stopTime="0.00" timeLoss="19.56" rerouteNo="0" devices="tripinfo_CVToC.10 routing_CVToC.10 ssm_CVToC.10 toc_CVToC.10 driverstateCVToC.10" vType="vehLVOS735" speedFactor="0.83" vaporized=""/>
    <tripinfo id="CAVToC.16" depart="54.70" departLane="entry_1" departPos="11.21" departSpeed="28.20" departDelay="5.60" arrival="219.60" arrivalLane="e0_1" arrivalPos="4800.00" arrivalSpeed="34.24" duration="164.90" routeLength="4988.79" waitingTime="0.00" waitingCount="0" stopTime="0.00" timeLoss="19.74" rerouteNo="0" devices="tripinfo_CAVToC.16 routing_CAVToC.16 ssm_CAVToC.16 toc_CAVToC.16 driverstateCAVToC.16" vType="vehLVOS137" speedFactor="0.95" vaporized=""/>
    <tripinfo id="CVToC.23" depart="57.70" departLane="entry_1" departPos="6.85" departSpeed="28.27" departDelay="4.20" arrival="221.30" arrivalLane="e0_1" arrivalPos="4800.00" arrivalSpeed="35.50" duration="163.60" routeLength="4993.15" waitingTime="0.00" waitingCount="0" stopTime="0.00" timeLoss="33.18" rerouteNo="0" devices="tripinfo_CVToC.23 routing_CVToC.23 ssm_CVToC.23 toc_CVToC.23 driverstateCVToC.23" vType="vehLVOS940" speedFactor="1.06" vaporized=""/>
    <tripinfo id="CAVToC.12" depart="36.50" departLane="entry_0" departPos="15.28" departSpeed="30.55" departDelay="4.10" arrival="222.50" arrivalLane="e0_0" arrivalPos="4800.00" arrivalSpeed="38.50" duration="186.00" routeLength="4984.72" waitingTime="0.00" waitingCount="0" stopTime="0.00" timeLoss="59.27" rerouteNo="0" devices="tripinfo_CAVToC.12 routing_CAVToC.12 ssm_CAVToC.12 toc_CAVToC.12 driverstateCAVToC.12" vType="vehLVOS472" speedFactor="1.09" vaporized=""/>
    <tripinfo id="CVToC.20" depart="56.10" departLane="entry_0" departPos="7.24" departSpeed="27.66" departDelay="9.10" arrival="223.50" arrivalLane="e0_1" arrivalPos="4800.00" arrivalSpeed="36.55" duration="167.40" routeLength="4992.76" waitingTime="0.00" waitingCount="0" stopTime="0.00" timeLoss="30.93" rerouteNo="0" devices="tripinfo_CVToC.20 routing_CVToC.20 ssm_CVToC.20 toc_CVToC.20 driverstateCVToC.20" vType="vehLVOS82" speedFactor="1.01" vaporized=""/>
    <tripinfo id="CVToC.12" depart="38.60" departLane="entry_0" departPos="2.52" departSpeed="31.13" departDelay="4.40" arrival="223.70" arrivalLane="e0_0" arrivalPos="4800.00" arrivalSpeed="35.60" duration="185.10" routeLength="4997.48" waitingTime="0.00" waitingCount="0" stopTime="0.00" timeLoss="44.77" rerouteNo="0" devices="tripinfo_CVToC.12 routing_CVToC.12 ssm_CVToC.12 toc_CVToC.12 driverstateCVToC.12" vType="vehLVOS297" speedFactor="0.99" vaporized=""/>
    <tripinfo id="CAVToC.19" depart="64.90" departLane="entry_1" departPos="41.57" departSpeed="29.13" departDelay="8.00" arrival="225.00" arrivalLane="e0_1" arrivalPos="4800.00" arrivalSpeed="35.75" duration="160.10" routeLength="4958.43" waitingTime="0.00" waitingCount="0" stopTime="0.00" timeLoss="37.34" rerouteNo="0" devices="tripinfo_CAVToC.19 routing_CAVToC.19 ssm_CAVToC.19 toc_CAVToC.19 driverstateCAVToC.19" vType="vehLVOS479" speedFactor="1.12" vaporized=""/>
    <tripinfo id="CVToC.21" depart="52.40" departLane="entry_1" departPos="23.63" departSpeed="28.46" departDelay="3.20" arrival="225.60" arrivalLane="e0_0" arrivalPos="4800.00" arrivalSpeed="34.40" duration="173.20" routeLength="4976.37" waitingTime="0.00" waitingCount="0" stopTime="0.00" timeLoss="28.86" rerouteNo="0" devices="tripinfo_CVToC.21 routing_CVToC.21 ssm_CVToC.21 toc_CVToC.21 driverstateCVToC.21" vType="vehLVOS432" speedFactor="0.96" vaporized=""/>
    <tripinfo id="CVToC.25" depart="66.50" departLane="entry_1" departPos="8.83" departSpeed="29.86" departDelay="0.70" arrival="225.90" arrivalLane="e0_1" arrivalPos="4800.00" arrivalSpeed="36.23" duration="159.40" routeLength="4991.17" waitingTime="0.00" waitingCount="0" stopTime="0.00" timeLoss="21.68" rerouteNo="0" devices="tripinfo_CVToC.25 routing_CVToC.25 ssm_CVToC.25 toc_CVToC.25 driverstateCVToC.25" vType="vehLVOS494" speedFactor="1.00" vaporized=""/>
    <tripinfo id="CVToC.26" depart="69.90" departLane="entry_1" departPos="10.57" departSpeed="31.73" departDelay="3.00" arrival="226.90" arrivalLane="e0_1" arrivalPos="4800.00" arrivalSpeed="37.16" duration="157.00" routeLength="4989.43" waitingTime="0.00" waitingCount="0" stopTime="0.00" timeLoss="47.60" rerouteNo="0" devices="tripinfo_CVToC.26 routing_CVToC.26 ssm_CVToC.26 toc_CVToC.26 driverstateCVToC.26" vType="vehLVOS525" speedFactor="1.26" vaporized=""/>
    <tripinfo id="CAVToC.17" depart="60.20" departLane="entry_1" departPos="1.25" departSpeed="28.39" departDelay="6.50" arrival="227.50" arrivalLane="e0_0" arrivalPos="4800.00" arrivalSpeed="34.36" duration="167.30" routeLength="4998.75" waitingTime="0.00" waitingCount="0" stopTime="0.00" timeLoss="21.81" rerouteNo="0" devices="tripinfo_CAVToC.17 routing_CAVToC.17 ssm_CAVToC.17 toc_CAVToC.17 driverstateCAVToC.17" vType="vehLVOS557" speedFactor="0.95" vaporized=""/>
    <tripinfo id="LV.4" depart="72.90" departLane="entry_1" departPos="0.68" departSpeed="36.28" departDelay="42.20" arrival="230.30" arrivalLane="e0_1" arrivalPos="4800.00" arrivalSpeed="36.18" duration="157.40" routeLength="4999.32" waitingTime="0.00" waitingCount="0" stopTime="0.00" timeLoss="19.62" rerouteNo="0" devices="tripinfo_LV.4 routing_LV.4 ssm_LV.4" vType="vehLVOS504" speedFactor="1.00" vaporized=""/>
    <tripinfo id="CAVToC.21" depart="75.50" departLane="entry_1" departPos="1.34" departSpeed="35.04" departDelay="5.70" arrival="232.20" arrivalLane="e0_1" arrivalPos="4800.00" arrivalSpeed="37.60" duration="156.70" routeLength="4998.66" waitingTime="0.00" waitingCount="0" stopTime="0.00" timeLoss="38.38" rerouteNo="0" devices="tripinfo_CAVToC.21 routing_CAVToC.21 ssm_CAVToC.21 toc_CAVToC.21 driverstateCAVToC.21" vType="vehLVOS972" speedFactor="1.17" vaporized=""/>
    <tripinfo id="CVToC.27" depart="77.90" departLane="entry_1" departPos="9.58" departSpeed="33.87" departDelay="4.30" arrival="233.00" arrivalLane="e0_0" arrivalPos="4800.00" arrivalSpeed="34.94" duration="155.10" routeLength="4990.42" waitingTime="0.00" waitingCount="0" stopTime="0.00" timeLoss="12.31" rerouteNo="0" devices="tripinfo_CVToC.27 routing_CVToC.27 ssm_CVToC.27 toc_CVToC.27 driverstateCVToC.27" vType="vehLVOS969" speedFactor="0.97" vaporized=""/>
    <tripinfo id="LV.5" depart="74.30" departLane="entry_0" departPos="0.82" departSpeed="41.37" departDelay="40.50" arrival="233.40" arrivalLane="e0_1" arrivalPos="4800.00" arrivalSpeed="38.44" duration="159.10" routeLength="4999.18" waitingTime="0.00" waitingCount="0" stopTime="0.00" timeLoss="38.24" rerouteNo="0" devices="tripinfo_LV.5 routing_LV.5 ssm_LV.5" vType="vehLVOS315" speedFactor="1.15" vaporized=""/>
    <tripinfo id="CAVToC.24" depart="80.00" departLane="entry_1" departPos="1.54" departSpeed="33.16" departDelay="6.40" arrival="236.70" arrivalLane="e0_1" arrivalPos="4800.00" arrivalSpeed="36.52" duration="156.70" routeLength="4998.46" waitingTime="0.00" waitingCount="0" stopTime="0.00" timeLoss="20.09" rerouteNo="0" devices="tripinfo_CAVToC.24 routing_CAVToC.24 ssm_CAVToC.24 toc_CAVToC.24 driverstateCAVToC.24" vType="vehLVOS217" speedFactor="1.01" vaporized=""/>
    <tripinfo id="CAVToC.22" depart="83.40" departLane="entry_1" departPos="20.58" departSpeed="31.90" departDelay="12.60" arrival="238.10" arrivalLane="e0_1" arrivalPos="4800.00" arrivalSpeed="38.46" duration="154.70" routeLength="4979.42" waitingTime="0.00" waitingCount="0" stopTime="0.00" timeLoss="33.07" rerouteNo="0" devices="tripinfo_CAVToC.22 routing_CAVToC.22 ssm_CAVToC.22 toc_CAVToC.22 driverstateCAVToC.22" vType="vehLVOS889" speedFactor="1.13" vaporized=""/>
    <tripinfo id="CAVToC.23" depart="76.90" departLane="entry_0" departPos="27.25" departSpeed="32.19" departDelay="5.40" arrival="242.30" arrivalLane="e0_0" arrivalPos="4800.00" arrivalSpeed="32.17" duration="165.40" routeLength="4972.75" waitingTime="0.00" waitingCount="0" stopTime="0.00" timeLoss="10.92" rerouteNo="0" devices="tripinfo_CAVToC.23 routing_CAVToC.23 ssm_CAVToC.23 toc_CAVToC.23 driverstateCAVToC.23" vType="vehLVOS570" speedFactor="0.89" vaporized=""/>
    <tripinfo id="CAVToC.26" depart="85.30" departLane="entry_1" departPos="6.46" departSpeed="31.20" departDelay="9.20" arrival="243.60" arrivalLane="e0_1" arrivalPos="4800.00" arrivalSpeed="33.29" duration="158.30" routeLength="4993.54" waitingTime="0.00" waitingCount="0" stopTime="0.00" timeLoss="8.21" rerouteNo="0" devices="tripinfo_CAVToC.26 routing_CAVToC.26 ssm_CAVToC.26 toc_CAVToC.26 driverstateCAVToC.26" vType="vehLVOS636" speedFactor="0.92" vaporized=""/>
    <tripinfo id="CVToC.28" depart="87.80" departLane="entry_1" departPos="0.96" departSpeed="30.70" departDelay="10.70" arrival="245.10" arrivalLane="e0_1" arrivalPos="4800.00" arrivalSpeed="35.54" duration="157.30" routeLength="4999.04" waitingTime="0.00" waitingCount="0" stopTime="0.00" timeLoss="21.11" rerouteNo="0" devices="tripinfo_CVToC.28 routing_CVToC.28 ssm_CVToC.28 toc_CVToC.28 driverstateCVToC.28" vType="vehLVOS355" speedFactor="1.02" vaporized=""/>
    <tripinfo id="CAVToC.13" depart="40.40" departLane="entry_0" departPos="4.09" departSpeed="24.43" departDelay="4.00" arrival="245.80" arrivalLane="e0_0" arrivalPos="4800.00" arrivalSpeed="24.37" duration="205.40" routeLength="4995.91" waitingTime="0.00" waitingCount="0" stopTime="0.00" timeLoss="0.92" rerouteNo="0" devices="tripinfo_CAVToC.13 routing_CAVToC.13 ssm_CAVToC.13 toc_CAVToC.13 driverstateCAVToC.13" vType="vehLVOS253" speedFactor="0.68" vaporized=""/>
    <tripinfo id="CAVToC.30" depart="90.20" departLane="entry_1" departPos="0.89" departSpeed="30.25" departDelay="12.00" arrival="246.20" arrivalLane="e0_1" arrivalPos="4800.00" arrivalSpeed="34.34" duration="156.00" routeLength="4999.11" waitingTime="0.00" waitingCount="0" stopTime="0.00" timeLoss="10.43" rerouteNo="0" devices="tripinfo_CAVToC.30 routing_CAVToC.30 ssm_CAVToC.30 toc_CAVToC.30 driverstateCAVToC.30" vType="vehLVOS531" speedFactor="0.95" vaporized=""/>
    <tripinfo id="CAVToC.29" depart="93.10" departLane="entry_1" departPos="1.00" departSpeed="30.54" departDelay="15.70" arrival="247.10" arrivalLane="e0_1" arrivalPos="4800.00" arrivalSpeed="35.28" duration="154.00" routeLength="4999.00" waitingTime="0.00" waitingCount="0" stopTime="0.00" timeLoss="29.90" rerouteNo="0" devices="tripinfo_CAVToC.29 routing_CAVToC.29 ssm_CAVToC.29 toc_CAVToC.29 driverstateCAVToC.29" vType="vehLVOS660" speedFactor="1.12" vaporized=""/>
    <tripinfo id="CVToC.14" depart="43.80" departLane="entry_0" departPos="9.22" departSpeed="25.69" departDelay="4.90" arrival="247.30" arrivalLane="e0_0" arrivalPos="4800.00" arrivalSpeed="27.65" duration="203.50" routeLength="4990.78" waitingTime="0.00" waitingCount="0" stopTime="0.00" timeLoss="65.06" rerouteNo="0" devices="tripinfo_CVToC.14 routing_CVToC.14 ssm_CVToC.14 toc_CVToC.14 driverstateCVToC.14" vType="vehLVOS706" speedFactor="1.00" vaporized=""/>
    <tripinfo id="CVToC.30" depart="97.00" departLane="entry_1" departPos="25.10" departSpeed="29.90" departDelay="18.30" arrival="248.40" arrivalLane="e0_1" arrivalPos="4800.00" arrivalSpeed="37.67" duration="151.40" routeLength="4974.90" waitingTime="0.00" waitingCount="0" stopTime="0.00" timeLoss="28.81" rerouteNo="0" devices="tripinfo_CVToC.30 routing_CVToC.30 ssm_CVToC.30 toc_CVToC.30 driverstateCVToC.30" vType="vehLVOS292" speedFactor="1.12" vaporized=""/>
    <tripinfo id="CVToC.15" depart="46.90" departLane="entry_0" departPos="8.91" departSpeed="26.64" departDelay="7.70" arrival="248.50" arrivalLane="e0_0" arrivalPos="4800.00" arrivalSpeed="29.10" duration="201.60" routeLength="4991.09" waitingTime="0.00" waitingCount="0" stopTime="0.00" timeLoss="62.57" rerouteNo="0" devices="tripinfo_CVToC.15 routing_CVToC.15 ssm_CVToC.15 toc_CVToC.15 driverstateCVToC.15" vType="vehLVOS96" speedFactor="0.99" vaporized=""/>
    <tripinfo id="CVToC.29" depart="95.00" departLane="entry_0" departPos="38.63" departSpeed="29.05" departDelay="17.20" arrival="251.70" arrivalLane="e0_1" arrivalPos="4800.00" arrivalSpeed="37.48" duration="156.70" routeLength="4961.37" waitingTime="0.00" waitingCount="0" stopTime="0.00" timeLoss="24.31" rerouteNo="0" devices="tripinfo_CVToC.29 routing_CVToC.29 ssm_CVToC.29 toc_CVToC.29 driverstateCVToC.29" vType="vehLVOS302" speedFactor="1.04" vaporized=""/>
    <tripinfo id="CVToC.17" depart="50.00" departLane="entry_0" departPos="5.09" departSpeed="27.22" departDelay="8.10" arrival="251.80" arrivalLane="e0_0" arrivalPos="4800.00" arrivalSpeed="34.23" duration="201.80" routeLength="4994.91" waitingTime="0.00" waitingCount="0" stopTime="0.00" timeLoss="71.52" rerouteNo="0" devices="tripinfo_CVToC.17 routing_CVToC.17 ssm_CVToC.17 toc_CVToC.17 driverstateCVToC.17" vType="vehLVOS265" speedFactor="1.06" vaporized=""/>
    <tripinfo id="CVToC.19" depart="53.00" departLane="entry_0" departPos="2.02" departSpeed="27.90" departDelay="7.00" arrival="253.30" arrivalLane="e0_0" arrivalPos="4800.00" arrivalSpeed="31.30" duration="200.30" routeLength="4997.98" waitingTime="0.00" waitingCount="0" stopTime="0.00" timeLoss="64.21" rerouteNo="0" devices="tripinfo_CVToC.19 routing_CVToC.19 ssm_CVToC.19 toc_CVToC.19 driverstateCVToC.19" vType="vehLVOS443" speedFactor="1.02" vaporized=""/>