<?xml version="1.0" encoding="UTF-8"?>

<!-- generated on Fri Jun 12 15:37:17 2020 by Eclipse SUMO Version v1_5_0+0820-fb638dbcbf
<configuration xmlns:xsi="http://www.w3.org/2001/XMLSchema-instance" xsi:noNamespaceSchemaLocation="http://sumo.dlr.de/xsd/sumoConfiguration.xsd">

    <input>
        <net-file value="UC5_1.net.xml"/>
        <route-files value="routes_trafficMix_0_trafficDemand_1_driverBehaviour_OS_seed_0.xml"/>
        <additional-files value="additionalsOutput_trafficMix_0_trafficDemand_1_driverBehaviour_OS_seed_0.xml,vTypesCAVToC_OS.add.xml,vTypesCVToC_OS.add.xml,vTypesLV_OS.add.xml,../shapes.add.xml,../view.add.xml"/>
    </input>

    <output>
        <tripinfo-output value="/home/anoulis/workspace/tor-distribution/outputs/simulations/runner//tripinfo_2.xml"/>
    </output>

    <time>
        <step-length value="0.1"/>
    </time>

    <processing>
        <step-method.ballistic value="true"/>
        <ignore-route-errors value="true"/>
        <lanechange.duration value="2.5"/>
    </processing>

    <report>
        <no-step-log value="true"/>
    </report>

    <toc_device>
        <device.toc.ogNewTimeHeadway value="100"/>
        <device.toc.ogNewSpaceHeadway value="5"/>
        <device.toc.ogMaxDecel value="1"/>
        <device.toc.ogChangeRate value="1"/>
    </toc_device>

    <traci_server>
        <remote-port value="43371"/>
    </traci_server>

    <random_number>
        <seed value="1026"/>
    </random_number>

    <gui_only>
        <tracker-interval value="0.1"/>
    </gui_only>

</configuration>
-->

<tripinfos xmlns:xsi="http://www.w3.org/2001/XMLSchema-instance" xsi:noNamespaceSchemaLocation="http://sumo.dlr.de/xsd/tripinfo_file.xsd">
    <tripinfo id="CAVToC.0" depart="2.30" departLane="entry_1" departPos="199.90" departSpeed="37.60" departDelay="0.00" arrival="130.10" arrivalLane="e0_1" arrivalPos="4800.00" arrivalSpeed="37.57" duration="127.80" routeLength="4800.10" waitingTime="0.00" waitingCount="0" stopTime="0.00" timeLoss="0.10" rerouteNo="0" devices="tripinfo_CAVToC.0 routing_CAVToC.0 ssm_CAVToC.0 toc_CAVToC.0 driverstateCAVToC.0" vType="vehLVOS186" speedFactor="1.04" vaporized=""/>
    <tripinfo id="CVToC.1" depart="3.40" departLane="entry_0" departPos="199.90" departSpeed="40.66" departDelay="0.00" arrival="131.10" arrivalLane="e0_0" arrivalPos="4800.00" arrivalSpeed="39.22" duration="127.70" routeLength="4800.10" waitingTime="0.00" waitingCount="0" stopTime="0.00" timeLoss="9.61" rerouteNo="0" devices="tripinfo_CVToC.1 routing_CVToC.1 ssm_CVToC.1 toc_CVToC.1 driverstateCVToC.1" vType="vehLVOS82" speedFactor="1.13" vaporized=""/>
    <tripinfo id="CVToC.0" depart="2.80" departLane="entry_1" departPos="150.81" departSpeed="31.43" departDelay="0.00" arrival="157.30" arrivalLane="e0_1" arrivalPos="4800.00" arrivalSpeed="31.37" duration="154.50" routeLength="4849.19" waitingTime="0.00" waitingCount="0" stopTime="0.00" timeLoss="0.14" rerouteNo="0" devices="tripinfo_CVToC.0 routing_CVToC.0 ssm_CVToC.0 toc_CVToC.0 driverstateCVToC.0" vType="vehLVOS285" speedFactor="0.87" vaporized=""/>
    <tripinfo id="CVToC.3" depart="4.90" departLane="entry_1" departPos="134.06" departSpeed="32.11" departDelay="0.00" arrival="158.80" arrivalLane="e0_1" arrivalPos="4800.00" arrivalSpeed="33.96" duration="153.90" routeLength="4865.94" waitingTime="0.00" waitingCount="0" stopTime="0.00" timeLoss="22.38" rerouteNo="0" devices="tripinfo_CVToC.3 routing_CVToC.3 ssm_CVToC.3 toc_CVToC.3 driverstateCVToC.3" vType="vehLVOS366" speedFactor="1.03" vaporized=""/>
    <tripinfo id="CVToC.2" depart="4.40" departLane="entry_0" departPos="160.40" departSpeed="38.08" departDelay="0.00" arrival="158.90" arrivalLane="e0_0" arrivalPos="4800.00" arrivalSpeed="33.83" duration="154.50" routeLength="4839.60" waitingTime="0.00" waitingCount="0" stopTime="0.00" timeLoss="27.35" rerouteNo="0" devices="tripinfo_CVToC.2 routing_CVToC.2 ssm_CVToC.2 toc_CVToC.2 driverstateCVToC.2" vType="vehLVOS145" speedFactor="1.05" vaporized=""/>
    <tripinfo id="LV.0" depart="6.70" departLane="entry_1" departPos="72.45" departSpeed="36.64" departDelay="0.00" arrival="160.30" arrivalLane="e0_1" arrivalPos="4800.00" arrivalSpeed="36.09" duration="153.60" routeLength="4927.55" waitingTime="0.00" waitingCount="0" stopTime="0.00" timeLoss="19.05" rerouteNo="0" devices="tripinfo_LV.0 routing_LV.0 ssm_LV.0" vType="vehLVOS214" speedFactor="1.01" vaporized=""/>
    <tripinfo id="CVToC.4" depart="9.60" departLane="entry_1" departPos="95.47" departSpeed="36.40" departDelay="0.20" arrival="161.50" arrivalLane="e0_1" arrivalPos="4800.00" arrivalSpeed="35.67" duration="151.90" routeLength="4904.53" waitingTime="0.00" waitingCount="0" stopTime="0.00" timeLoss="30.82" rerouteNo="0" devices="tripinfo_CVToC.4 routing_CVToC.4 ssm_CVToC.4 toc_CVToC.4 driverstateCVToC.4" vType="vehLVOS294" speedFactor="1.12" vaporized=""/>
    <tripinfo id="CAVToC.1" depart="5.20" departLane="entry_0" departPos="100.96" departSpeed="36.79" departDelay="0.00" arrival="161.60" arrivalLane="e0_0" arrivalPos="4800.00" arrivalSpeed="35.73" duration="156.40" routeLength="4899.04" waitingTime="0.00" waitingCount="0" stopTime="0.00" timeLoss="37.98" rerouteNo="0" devices="tripinfo_CAVToC.1 routing_CAVToC.1 ssm_CAVToC.1 toc_CAVToC.1 driverstateCAVToC.1" vType="vehLVOS909" speedFactor="1.15" vaporized=""/>
    <tripinfo id="LV.1" depart="7.50" departLane="entry_0" departPos="25.08" departSpeed="38.64" departDelay="0.00" arrival="163.10" arrivalLane="e0_1" arrivalPos="4800.00" arrivalSpeed="38.64" duration="155.60" routeLength="4974.92" waitingTime="0.00" waitingCount="0" stopTime="0.00" timeLoss="26.82" rerouteNo="0" devices="tripinfo_LV.1 routing_LV.1 ssm_LV.1" vType="vehLVOS626" speedFactor="1.07" vaporized=""/>
    <tripinfo id="CAVToC.3" depart="11.10" departLane="entry_0" departPos="4.97" departSpeed="32.83" departDelay="0.50" arrival="164.60" arrivalLane="e0_0" arrivalPos="4800.00" arrivalSpeed="37.58" duration="153.50" routeLength="4995.03" waitingTime="0.00" waitingCount="0" stopTime="0.00" timeLoss="20.61" rerouteNo="0" devices="tripinfo_CAVToC.3 routing_CAVToC.3 ssm_CAVToC.3 toc_CAVToC.3 driverstateCAVToC.3" vType="vehLVOS164" speedFactor="1.04" vaporized=""/>
    <tripinfo id="LV.2" depart="12.20" departLane="entry_1" departPos="2.89" departSpeed="31.83" departDelay="2.20" arrival="166.10" arrivalLane="e0_1" arrivalPos="4800.00" arrivalSpeed="40.46" duration="153.90" routeLength="4997.11" waitingTime="0.00" waitingCount="0" stopTime="0.00" timeLoss="44.33" rerouteNo="0" devices="tripinfo_LV.2 routing_LV.2 ssm_LV.2" vType="vehLVOS150" speedFactor="1.26" vaporized=""/>
    <tripinfo id="CAVToC.4" depart="16.20" departLane="entry_1" departPos="42.19" departSpeed="33.72" departDelay="0.00" arrival="168.00" arrivalLane="e0_0" arrivalPos="4800.00" arrivalSpeed="38.12" duration="151.80" routeLength="4957.81" waitingTime="0.00" waitingCount="0" stopTime="0.00" timeLoss="34.44" rerouteNo="0" devices="tripinfo_CAVToC.4 routing_CAVToC.4 ssm_CAVToC.4 toc_CAVToC.4 driverstateCAVToC.4" vType="vehLVOS392" speedFactor="1.17" vaporized=""/>
    <tripinfo id="CAVToC.5" depart="16.50" departLane="entry_0" departPos="66.84" departSpeed="35.80" departDelay="0.00" arrival="168.70" arrivalLane="e0_1" arrivalPos="4800.00" arrivalSpeed="42.07" duration="152.20" routeLength="4933.16" waitingTime="0.00" waitingCount="0" stopTime="0.00" timeLoss="35.56" rerouteNo="0" devices="tripinfo_CAVToC.5 routing_CAVToC.5 ssm_CAVToC.5 toc_CAVToC.5 driverstateCAVToC.5" vType="vehLVOS507" speedFactor="1.17" vaporized=""/>
    <tripinfo id="CAVToC.2" depart="8.70" departLane="entry_0" departPos="5.62" departSpeed="32.19" departDelay="0.00" arrival="169.70" arrivalLane="e0_0" arrivalPos="4800.00" arrivalSpeed="32.18" duration="161.00" routeLength="4994.38" waitingTime="0.00" waitingCount="0" stopTime="0.00" timeLoss="5.83" rerouteNo="0" devices="tripinfo_CAVToC.2 routing_CAVToC.2 ssm_CAVToC.2 toc_CAVToC.2 driverstateCAVToC.2" vType="vehLVOS297" speedFactor="0.89" vaporized=""/>
    <tripinfo id="LV.4" depart="17.10" departLane="entry_1" departPos="27.44" departSpeed="34.53" departDelay="0.00" arrival="170.60" arrivalLane="e0_1" arrivalPos="4800.00" arrivalSpeed="34.45" duration="153.50" routeLength="4972.56" waitingTime="0.00" waitingCount="0" stopTime="0.00" timeLoss="9.42" rerouteNo="0" devices="tripinfo_LV.4 routing_LV.4 ssm_LV.4" vType="vehLVOS44" speedFactor="0.96" vaporized=""/>
    <tripinfo id="CVToC.5" depart="17.60" departLane="entry_0" departPos="31.39" departSpeed="33.77" departDelay="0.10" arrival="172.00" arrivalLane="e0_1" arrivalPos="4800.00" arrivalSpeed="34.68" duration="154.40" routeLength="4968.61" waitingTime="0.00" waitingCount="0" stopTime="0.00" timeLoss="11.16" rerouteNo="0" devices="tripinfo_CVToC.5 routing_CVToC.5 ssm_CVToC.5 toc_CVToC.5 driverstateCVToC.5" vType="vehLVOS17" speedFactor="0.96" vaporized=""/>
    <tripinfo id="LV.3" depart="13.40" departLane="entry_0" departPos="63.20" departSpeed="28.26" departDelay="0.50" arrival="173.70" arrivalLane="e0_1" arrivalPos="4800.00" arrivalSpeed="36.65" duration="160.30" routeLength="4936.80" waitingTime="0.00" waitingCount="0" stopTime="0.00" timeLoss="25.59" rerouteNo="0" devices="tripinfo_LV.3 routing_LV.3 ssm_LV.3" vType="vehLVOS711" speedFactor="1.02" vaporized=""/>
    <tripinfo id="CVToC.6" depart="18.30" departLane="entry_1" departPos="4.74" departSpeed="30.79" departDelay="0.00" arrival="180.80" arrivalLane="e0_1" arrivalPos="4800.00" arrivalSpeed="30.71" duration="162.50" routeLength="4995.26" waitingTime="0.00" waitingCount="0" stopTime="0.00" timeLoss="0.20" rerouteNo="0" devices="tripinfo_CVToC.6 routing_CVToC.6 ssm_CVToC.6 toc_CVToC.6 driverstateCVToC.6" vType="vehLVOS915" speedFactor="0.85" vaporized=""/>
    <tripinfo id="CVToC.7" depart="21.10" departLane="entry_1" departPos="5.77" departSpeed="31.90" departDelay="0.40" arrival="182.20" arrivalLane="e0_1" arrivalPos="4800.00" arrivalSpeed="34.21" duration="161.10" routeLength="4994.23" waitingTime="0.00" waitingCount="0" stopTime="0.00" timeLoss="39.62" rerouteNo="0" devices="tripinfo_CVToC.7 routing_CVToC.7 ssm_CVToC.7 toc_CVToC.7 driverstateCVToC.7" vType="vehLVOS9" speedFactor="1.14" vaporized=""/>
    <tripinfo id="CAVToC.6" depart="19.80" departLane="entry_0" departPos="16.63" departSpeed="34.97" departDelay="0.10" arrival="183.10" arrivalLane="e0_0" arrivalPos="4800.00" arrivalSpeed="32.84" duration="163.30" routeLength="4983.37" waitingTime="0.00" waitingCount="0" stopTime="0.00" timeLoss="39.27" rerouteNo="0" devices="tripinfo_CAVToC.6 routing_CAVToC.6 ssm_CAVToC.6 toc_CAVToC.6 driverstateCAVToC.6" vType="vehLVOS734" speedFactor="1.11" vaporized=""/>
    <tripinfo id="CVToC.9" depart="24.00" departLane="entry_1" departPos="16.90" departSpeed="32.54" departDelay="0.20" arrival="184.10" arrivalLane="e0_1" arrivalPos="4800.00" arrivalSpeed="38.51" duration="160.10" routeLength="4983.10" waitingTime="0.00" waitingCount="0" stopTime="0.00" timeLoss="32.82" rerouteNo="0" devices="tripinfo_CVToC.9 routing_CVToC.9 ssm_CVToC.9 toc_CVToC.9 driverstateCVToC.9" vType="vehLVOS361" speedFactor="1.08" vaporized=""/>
    <tripinfo id="CVToC.8" depart="22.50" departLane="entry_0" departPos="2.54" departSpeed="29.87" departDelay="1.30" arrival="184.70" arrivalLane="e0_0" arrivalPos="4800.00" arrivalSpeed="37.08" duration="162.20" routeLength="4997.46" waitingTime="0.00" waitingCount="0" stopTime="0.00" timeLoss="52.56" rerouteNo="0" devices="tripinfo_CVToC.8 routing_CVToC.8 ssm_CVToC.8 toc_CVToC.8 driverstateCVToC.8" vType="vehLVOS266" speedFactor="1.26" vaporized=""/>
    <tripinfo id="CAVToC.7" depart="25.90" departLane="entry_1" departPos="9.36" departSpeed="32.58" departDelay="0.30" arrival="185.40" arrivalLane="e0_1" arrivalPos="4800.00" arrivalSpeed="33.21" duration="159.50" routeLength="4990.64" waitingTime="0.00" waitingCount="0" stopTime="0.00" timeLoss="9.64" rerouteNo="0" devices="tripinfo_CAVToC.7 routing_CAVToC.7 ssm_CAVToC.7 toc_CAVToC.7 driverstateCAVToC.7" vType="vehLVOS217" speedFactor="0.92" vaporized=""/>
    <tripinfo id="LV.5" depart="28.50" departLane="entry_1" departPos="2.29" departSpeed="37.00" departDelay="5.40" arrival="186.50" arrivalLane="e0_1" arrivalPos="4800.00" arrivalSpeed="36.53" duration="158.00" routeLength="4997.71" waitingTime="0.00" waitingCount="0" stopTime="0.00" timeLoss="22.89" rerouteNo="0" devices="tripinfo_LV.5 routing_LV.5 ssm_LV.5" vType="vehLVOS671" speedFactor="1.02" vaporized=""/>
    <tripinfo id="CVToC.10" depart="25.40" departLane="entry_0" departPos="7.41" departSpeed="30.43" departDelay="0.80" arrival="186.50" arrivalLane="e0_0" arrivalPos="4800.00" arrivalSpeed="35.05" duration="161.10" routeLength="4992.59" waitingTime="0.00" waitingCount="0" stopTime="0.00" timeLoss="23.81" rerouteNo="0" devices="tripinfo_CVToC.10 routing_CVToC.10 ssm_CVToC.10 toc_CVToC.10 driverstateCVToC.10" vType="vehLVOS788" speedFactor="1.01" vaporized=""/>
    <tripinfo id="CAVToC.10" depart="31.80" departLane="entry_1" departPos="40.75" departSpeed="30.70" departDelay="0.20" arrival="188.40" arrivalLane="e0_1" arrivalPos="4800.00" arrivalSpeed="35.07" duration="156.60" routeLength="4959.25" waitingTime="0.00" waitingCount="0" stopTime="0.00" timeLoss="15.50" rerouteNo="0" devices="tripinfo_CAVToC.10 routing_CAVToC.10 ssm_CAVToC.10 toc_CAVToC.10 driverstateCAVToC.10" vType="vehLVOS775" speedFactor="0.97" vaporized=""/>
    <tripinfo id="CAVToC.8" depart="29.30" departLane="entry_0" departPos="52.65" departSpeed="30.58" departDelay="0.00" arrival="189.20" arrivalLane="e0_0" arrivalPos="4800.00" arrivalSpeed="34.31" duration="159.90" routeLength="4947.35" waitingTime="0.00" waitingCount="0" stopTime="0.00" timeLoss="15.65" rerouteNo="0" devices="tripinfo_CAVToC.8 routing_CAVToC.8 ssm_CAVToC.8 toc_CAVToC.8 driverstateCAVToC.8" vType="vehLVOS131" speedFactor="0.95" vaporized=""/>
    <tripinfo id="CAVToC.12" depart="35.80" departLane="entry_1" departPos="52.48" departSpeed="30.08" departDelay="0.00" arrival="189.70" arrivalLane="e0_1" arrivalPos="4800.00" arrivalSpeed="35.21" duration="153.90" routeLength="4947.52" waitingTime="0.00" waitingCount="0" stopTime="0.00" timeLoss="13.36" rerouteNo="0" devices="tripinfo_CAVToC.12 routing_CAVToC.12 ssm_CAVToC.12 toc_CAVToC.12 driverstateCAVToC.12" vType="vehLVOS528" speedFactor="0.98" vaporized=""/>
    <tripinfo id="CVToC.12" depart="37.90" departLane="entry_1" departPos="19.83" departSpeed="31.43" departDelay="0.50" arrival="191.30" arrivalLane="e0_1" arrivalPos="4800.00" arrivalSpeed="37.61" duration="153.40" routeLength="4980.17" waitingTime="0.00" waitingCount="0" stopTime="0.00" timeLoss="40.16" rerouteNo="0" devices="tripinfo_CVToC.12 routing_CVToC.12 ssm_CVToC.12 toc_CVToC.12 driverstateCVToC.12" vType="vehLVOS349" speedFactor="1.22" vaporized=""/>
    <tripinfo id="CAVToC.11" depart="33.60" departLane="entry_0" departPos="25.94" departSpeed="30.71" departDelay="0.10" arrival="192.10" arrivalLane="e0_0" arrivalPos="4800.00" arrivalSpeed="35.52" duration="158.50" routeLength="4974.06" waitingTime="0.00" waitingCount="0" stopTime="0.00" timeLoss="18.48" rerouteNo="0" devices="tripinfo_CAVToC.11 routing_CAVToC.11 ssm_CAVToC.11 toc_CAVToC.11 driverstateCAVToC.11" vType="vehLVOS860" speedFactor="0.98" vaporized=""/>
    <tripinfo id="CAVToC.13" depart="40.30" departLane="entry_1" departPos="17.19" departSpeed="31.87" departDelay="1.10" arrival="193.00" arrivalLane="e0_1" arrivalPos="4800.00" arrivalSpeed="35.46" duration="152.70" routeLength="4982.81" waitingTime="0.00" waitingCount="0" stopTime="0.00" timeLoss="12.16" rerouteNo="0" devices="tripinfo_CAVToC.13 routing_CAVToC.13 ssm_CAVToC.13 toc_CAVToC.13 driverstateCAVToC.13" vType="vehLVOS512" speedFactor="0.98" vaporized=""/>
    <tripinfo id="LV.9" depart="44.80" departLane="entry_1" departPos="9.23" departSpeed="41.31" departDelay="8.60" arrival="194.70" arrivalLane="e0_1" arrivalPos="4800.00" arrivalSpeed="36.60" duration="149.90" routeLength="4990.77" waitingTime="0.00" waitingCount="0" stopTime="0.00" timeLoss="29.06" rerouteNo="0" devices="tripinfo_LV.9 routing_LV.9 ssm_LV.9" vType="vehLVOS316" speedFactor="1.14" vaporized=""/>
    <tripinfo id="LV.7" depart="31.70" departLane="entry_1" departPos="111.46" departSpeed="30.12" departDelay="0.00" arrival="196.00" arrivalLane="e0_0" arrivalPos="4800.00" arrivalSpeed="30.10" duration="164.30" routeLength="4888.54" waitingTime="0.00" waitingCount="0" stopTime="0.00" timeLoss="1.95" rerouteNo="0" devices="tripinfo_LV.7 routing_LV.7 ssm_LV.7" vType="vehLVOS909" speedFactor="0.83" vaporized=""/>
    <tripinfo id="LV.11" depart="46.30" departLane="entry_1" departPos="0.04" departSpeed="42.28" departDelay="4.10" arrival="196.20" arrivalLane="e0_1" arrivalPos="4800.00" arrivalSpeed="36.54" duration="149.90" routeLength="4999.96" waitingTime="0.00" waitingCount="0" stopTime="0.00" timeLoss="31.56" rerouteNo="0" devices="tripinfo_LV.11 routing_LV.11 ssm_LV.11" vType="vehLVOS258" speedFactor="1.17" vaporized=""/>
    <tripinfo id="CAVToC.9" depart="30.60" departLane="entry_0" departPos="10.24" departSpeed="31.22" departDelay="0.90" arrival="197.70" arrivalLane="e0_0" arrivalPos="4800.00" arrivalSpeed="33.24" duration="167.10" routeLength="4989.76" waitingTime="0.00" waitingCount="0" stopTime="0.00" timeLoss="31.81" rerouteNo="0" devices="tripinfo_CAVToC.9 routing_CAVToC.9 ssm_CAVToC.9 toc_CAVToC.9 driverstateCAVToC.9" vType="vehLVOS43" speedFactor="1.02" vaporized=""/>
    <tripinfo id="CVToC.13" depart="48.40" departLane="entry_1" departPos="9.84" departSpeed="36.35" departDelay="5.80" arrival="199.20" arrivalLane="e0_1" arrivalPos="4800.00" arrivalSpeed="36.76" duration="150.80" routeLength="4990.16" waitingTime="0.00" waitingCount="0" stopTime="0.00" timeLoss="15.17" rerouteNo="0" devices="tripinfo_CVToC.13 routing_CVToC.13 ssm_CVToC.13 toc_CVToC.13 driverstateCVToC.13" vType="vehLVOS852" speedFactor="1.02" vaporized=""/>
    <tripinfo id="CAVToC.14" depart="50.50" departLane="entry_1" departPos="1.54" departSpeed="36.44" departDelay="7.80" arrival="200.20" arrivalLane="e0_1" arrivalPos="4800.00" arrivalSpeed="38.46" duration="149.70" routeLength="4998.46" waitingTime="0.00" waitingCount="0" stopTime="0.00" timeLoss="20.31" rerouteNo="0" devices="tripinfo_CAVToC.14 routing_CAVToC.14 ssm_CAVToC.14 toc_CAVToC.14 driverstateCAVToC.14" vType="vehLVOS844" speedFactor="1.07" vaporized=""/>
    <tripinfo id="LV.8" depart="34.40" departLane="entry_1" departPos="86.97" departSpeed="29.85" departDelay="0.20" arrival="201.20" arrivalLane="e0_0" arrivalPos="4800.00" arrivalSpeed="29.79" duration="166.80" routeLength="4913.03" waitingTime="0.00" waitingCount="0" stopTime="0.00" timeLoss="2.14" rerouteNo="0" devices="tripinfo_LV.8 routing_LV.8 ssm_LV.8" vType="vehLVOS366" speedFactor="0.83" vaporized=""/>
    <tripinfo id="CVToC.16" depart="52.90" departLane="entry_1" departPos="9.22" departSpeed="36.18" departDelay="2.90" arrival="201.20" arrivalLane="e0_1" arrivalPos="4800.00" arrivalSpeed="36.17" duration="148.30" routeLength="4990.78" waitingTime="0.00" waitingCount="0" stopTime="0.00" timeLoss="10.32" rerouteNo="0" devices="tripinfo_CVToC.16 routing_CVToC.16 ssm_CVToC.16 toc_CVToC.16 driverstateCVToC.16" vType="vehLVOS123" speedFactor="1.00" vaporized=""/>
    <tripinfo id="CVToC.11" depart="37.80" departLane="entry_0" departPos="59.72" departSpeed="30.24" departDelay="0.70" arrival="202.20" arrivalLane="e0_0" arrivalPos="4800.00" arrivalSpeed="30.64" duration="164.40" routeLength="4940.28" waitingTime="0.00" waitingCount="0" stopTime="0.00" timeLoss="41.95" rerouteNo="0" devices="tripinfo_CVToC.11 routing_CVToC.11 ssm_CVToC.11 toc_CVToC.11 driverstateCVToC.11" vType="vehLVOS516" speedFactor="1.12" vaporized=""/>
    <tripinfo id="LV.10" depart="39.10" departLane="entry_0" departPos="10.14" departSpeed="32.26" departDelay="0.20" arrival="204.60" arrivalLane="e0_0" arrivalPos="4800.00" arrivalSpeed="32.25" duration="165.50" routeLength="4989.86" waitingTime="0.00" waitingCount="0" stopTime="0.00" timeLoss="10.75" rerouteNo="0" devices="tripinfo_LV.10 routing_LV.10 ssm_LV.10" vType="vehLVOS214" speedFactor="0.89" vaporized=""/>
    <tripinfo id="CAVToC.15" depart="45.00" departLane="entry_0" departPos="104.15" departSpeed="27.32" departDelay="1.70" arrival="206.40" arrivalLane="e0_1" arrivalPos="4800.00" arrivalSpeed="36.97" duration="161.40" routeLength="4895.85" waitingTime="0.00" waitingCount="0" stopTime="0.00" timeLoss="29.07" rerouteNo="0" devices="tripinfo_CAVToC.15 routing_CAVToC.15 ssm_CAVToC.15 toc_CAVToC.15 driverstateCAVToC.15" vType="vehLVOS491" speedFactor="1.03" vaporized=""/>
    <tripinfo id="CVToC.14" depart="45.00" departLane="entry_0" departPos="33.23" departSpeed="27.85" departDelay="0.70" arrival="209.20" arrivalLane="e0_0" arrivalPos="4800.00" arrivalSpeed="31.38" duration="164.20" routeLength="4966.77" waitingTime="0.00" waitingCount="0" stopTime="0.00" timeLoss="5.91" rerouteNo="0" devices="tripinfo_CVToC.14 routing_CVToC.14 ssm_CVToC.14 toc_CVToC.14 driverstateCVToC.14" vType="vehLVOS883" speedFactor="0.87" vaporized=""/>
    <tripinfo id="CAVToC.16" depart="46.90" departLane="entry_0" departPos="12.80" departSpeed="27.93" departDelay="1.10" arrival="210.70" arrivalLane="e0_0" arrivalPos="4800.00" arrivalSpeed="32.67" duration="163.80" routeLength="4987.20" waitingTime="0.00" waitingCount="0" stopTime="0.00" timeLoss="11.88" rerouteNo="0" devices="tripinfo_CAVToC.16 routing_CAVToC.16 ssm_CAVToC.16 toc_CAVToC.16 driverstateCAVToC.16" vType="vehLVOS255" speedFactor="0.91" vaporized=""/>
    <tripinfo id="CVToC.17" depart="54.80" departLane="entry_1" departPos="10.76" departSpeed="32.16" departDelay="0.00" arrival="212.30" arrivalLane="e0_1" arrivalPos="4800.00" arrivalSpeed="32.15" duration="157.50" routeLength="4989.24" waitingTime="0.00" waitingCount="0" stopTime="0.00" timeLoss="2.29" rerouteNo="0" devices="tripinfo_CVToC.17 routing_CVToC.17 ssm_CVToC.17 toc_CVToC.17 driverstateCVToC.17" vType="vehLVOS458" speedFactor="0.89" vaporized=""/>
    <tripinfo id="CVToC.15" depart="49.30" departLane="entry_0" departPos="5.43" departSpeed="27.51" departDelay="2.20" arrival="213.00" arrivalLane="e0_0" arrivalPos="4800.00" arrivalSpeed="32.74" duration="163.70" routeLength="4994.57" waitingTime="0.00" waitingCount="0" stopTime="0.00" timeLoss="11.18" rerouteNo="0" devices="tripinfo_CVToC.15 routing_CVToC.15 ssm_CVToC.15 toc_CVToC.15 driverstateCVToC.15" vType="vehLVOS961" speedFactor="0.91" vaporized=""/>
    <tripinfo id="CAVToC.17" depart="52.40" departLane="entry_0" departPos="13.38" departSpeed="27.32" departDelay="1.40" arrival="213.90" arrivalLane="e0_1" arrivalPos="4800.00" arrivalSpeed="34.40" duration="161.50" routeLength="4986.62" waitingTime="0.00" waitingCount="0" stopTime="0.00" timeLoss="16.58" rerouteNo="0" devices="tripinfo_CAVToC.17 routing_CAVToC.17 ssm_CAVToC.17 toc_CAVToC.17 driverstateCAVToC.17" vType="vehLVOS89" speedFactor="0.95" vaporized=""/>
    <tripinfo id="CAVToC.20" depart="59.30" departLane="entry_1" departPos="3.23" departSpeed="33.04" departDelay="1.50" arrival="214.60" arrivalLane="e0_0" arrivalPos="4800.00" arrivalSpeed="33.61" duration="155.30" routeLength="4996.77" waitingTime="0.00" waitingCount="0" stopTime="0.00" timeLoss="7.36" rerouteNo="0" devices="tripinfo_CAVToC.20 routing_CAVToC.20 ssm_CAVToC.20 toc_CAVToC.20 driverstateCAVToC.20" vType="vehLVOS980" speedFactor="0.94" vaporized=""/>
    <tripinfo id="CAVToC.18" depart="57.10" departLane="entry_1" departPos="1.97" departSpeed="32.97" departDelay="2.90" arrival="215.30" arrivalLane="e0_1" arrivalPos="4800.00" arrivalSpeed="34.50" duration="158.20" routeLength="4998.03" waitingTime="0.00" waitingCount="0" stopTime="0.00" timeLoss="30.95" rerouteNo="0" devices="tripinfo_CAVToC.18 routing_CAVToC.18 ssm_CAVToC.18 toc_CAVToC.18 driverstateCAVToC.18" vType="vehLVOS654" speedFactor="1.09" vaporized=""/>
    <tripinfo id="CAVToC.22" depart="61.80" departLane="entry_1" departPos="5.03" departSpeed="33.51" departDelay="1.50" arrival="216.90" arrivalLane="e0_1" arrivalPos="4800.00" arrivalSpeed="36.09" duration="155.10" routeLength="4994.97" waitingTime="0.00" waitingCount="0" stopTime="0.00" timeLoss="24.01" rerouteNo="0" devices="tripinfo_CAVToC.22 routing_CAVToC.22 ssm_CAVToC.22 toc_CAVToC.22 driverstateCAVToC.22" vType="vehLVOS704" speedFactor="1.06" vaporized=""/>
    <tripinfo id="LV.12" depart="64.80" departLane="entry_1" departPos="7.14" departSpeed="40.90" departDelay="11.10" arrival="217.70" arrivalLane="e0_1" arrivalPos="4800.00" arrivalSpeed="36.46" duration="152.90" routeLength="4992.86" waitingTime="0.00" waitingCount="0" stopTime="0.00" timeLoss="30.81" rerouteNo="0" devices="tripinfo_LV.12 routing_LV.12 ssm_LV.12" vType="vehLVOS383" speedFactor="1.13" vaporized=""/>
    <tripinfo id="LV.14" depart="66.60" departLane="entry_1" departPos="0.75" departSpeed="35.12" departDelay="11.40" arrival="220.70" arrivalLane="e0_0" arrivalPos="4800.00" arrivalSpeed="35.11" duration="154.10" routeLength="4999.25" waitingTime="0.00" waitingCount="0" stopTime="0.00" timeLoss="11.71" rerouteNo="0" devices="tripinfo_LV.14 routing_LV.14 ssm_LV.14" vType="vehLVOS752" speedFactor="0.97" vaporized=""/>
    <tripinfo id="LV.16" depart="69.80" departLane="entry_1" departPos="56.71" departSpeed="35.49" departDelay="2.10" arrival="221.10" arrivalLane="e0_1" arrivalPos="4800.00" arrivalSpeed="35.43" duration="151.30" routeLength="4943.29" waitingTime="0.00" waitingCount="0" stopTime="0.00" timeLoss="11.97" rerouteNo="0" devices="tripinfo_LV.16 routing_LV.16 ssm_LV.16" vType="vehLVOS22" speedFactor="0.98" vaporized=""/>
    <tripinfo id="LV.17" depart="70.30" departLane="entry_1" departPos="34.21" departSpeed="36.26" departDelay="1.00" arrival="222.10" arrivalLane="e0_1" arrivalPos="4800.00" arrivalSpeed="36.23" duration="151.80" routeLength="4965.79" waitingTime="0.00" waitingCount="0" stopTime="0.00" timeLoss="14.82" rerouteNo="0" devices="tripinfo_LV.17 routing_LV.17 ssm_LV.17" vType="vehLVOS178" speedFactor="1.00" vaporized=""/>
    <tripinfo id="CVToC.20" depart="71.40" departLane="entry_1" departPos="0.80" departSpeed="33.45" departDelay="0.10" arrival="225.90" arrivalLane="e0_0" arrivalPos="4800.00" arrivalSpeed="33.42" duration="154.50" routeLength="4999.20" waitingTime="0.00" waitingCount="0" stopTime="0.00" timeLoss="4.96" rerouteNo="0" devices="tripinfo_CVToC.20 routing_CVToC.20 ssm_CVToC.20 toc_CVToC.20 driverstateCVToC.20" vType="vehLVOS756" speedFactor="0.93" vaporized=""/>
    <tripinfo id="CAVToC.24" depart="74.00" departLane="entry_1" departPos="3.43" departSpeed="34.02" departDelay="1.60" arrival="226.40" arrivalLane="e0_1" arrivalPos="4800.00" arrivalSpeed="37.89" duration="152.40" routeLength="4996.57" waitingTime="0.00" waitingCount="0" stopTime="0.00" timeLoss="20.50" rerouteNo="0" devices="tripinfo_CAVToC.24 routing_CAVToC.24 ssm_CAVToC.24 toc_CAVToC.24 driverstateCAVToC.24" vType="vehLVOS302" speedFactor="1.05" vaporized=""/>
    <tripinfo id="LV.18" depart="73.10" departLane="entry_0" departPos="2.03" departSpeed="35.28" departDelay="2.40" arrival="228.60" arrivalLane="e0_1" arrivalPos="4800.00" arrivalSpeed="35.21" duration="155.50" routeLength="4997.97" waitingTime="0.00" waitingCount="0" stopTime="0.00" timeLoss="13.72" rerouteNo="0" devices="tripinfo_LV.18 routing_LV.18 ssm_LV.18" vType="vehLVOS991" speedFactor="0.98" vaporized=""/>
    <tripinfo id="CVToC.22" depart="76.70" departLane="entry_1" departPos="12.12" departSpeed="34.64" departDelay="1.50" arrival="229.90" arrivalLane="e0_1" arrivalPos="4800.00" arrivalSpeed="36.12" duration="153.20" routeLength="4987.88" waitingTime="0.00" waitingCount="0" stopTime="0.00" timeLoss="30.29" rerouteNo="0" devices="tripinfo_CVToC.22 routing_CVToC.22 ssm_CVToC.22 toc_CVToC.22 driverstateCVToC.22" vType="vehLVOS994" speedFactor="1.12" vaporized=""/>
    <tripinfo id="LV.13" depart="54.20" departLane="entry_0" departPos="11.31" departSpeed="28.90" departDelay="0.00" arrival="231.00" arrivalLane="e0_0" arrivalPos="4800.00" arrivalSpeed="28.86" duration="176.80" routeLength="4988.69" waitingTime="0.00" waitingCount="0" stopTime="0.00" timeLoss="4.07" rerouteNo="0" devices="tripinfo_LV.13 routing_LV.13 ssm_LV.13" vType="vehLVOS693" speedFactor="0.80" vaporized=""/>
    <tripinfo id="CAVToC.19" depart="57.40" departLane="entry_0" departPos="26.85" departSpeed="29.73" departDelay="2.30" arrival="232.10" arrivalLane="e0_0" arrivalPos="4800.00" arrivalSpeed="31.06" duration="174.70" routeLength="4973.15" waitingTime="0.00" waitingCount="0" stopTime="0.00" timeLoss="39.39" rerouteNo="0" devices="tripinfo_CAVToC.19 routing_CAVToC.19 ssm_CAVToC.19 toc_CAVToC.19 driverstateCAVToC.19" vType="vehLVOS726" speedFactor="1.02" vaporized=""/>
    <tripinfo id="CAVToC.26" depart="79.60" departLane="entry_1" departPos="38.85" departSpeed="34.62" departDelay="0.70" arrival="233.30" arrivalLane="e0_1" arrivalPos="4800.00" arrivalSpeed="35.22" duration="153.70" routeLength="4961.15" waitingTime="0.00" waitingCount="0" stopTime="0.00" timeLoss="12.97" rerouteNo="0" devices="tripinfo_CAVToC.26 routing_CAVToC.26 ssm_CAVToC.26 toc_CAVToC.26 driverstateCAVToC.26" vType="vehLVOS43" speedFactor="0.98" vaporized=""/>
    <tripinfo id="CVToC.18" depart="60.10" departLane="entry_0" departPos="21.45" departSpeed="30.62" departDelay="3.40" arrival="234.50" arrivalLane="e0_0" arrivalPos="4800.00" arrivalSpeed="36.94" duration="174.40" routeLength="4978.55" waitingTime="0.00" waitingCount="0" stopTime="0.00" timeLoss="45.14" rerouteNo="0" devices="tripinfo_CVToC.18 routing_CVToC.18 ssm_CVToC.18 toc_CVToC.18 driverstateCVToC.18" vType="vehLVOS196" speedFactor="1.07" vaporized=""/>