<?xml version="1.0" encoding="UTF-8"?>

<!-- generated on Fri Jun 12 15:48:57 2020 by Eclipse SUMO Version v1_5_0+0820-fb638dbcbf
<configuration xmlns:xsi="http://www.w3.org/2001/XMLSchema-instance" xsi:noNamespaceSchemaLocation="http://sumo.dlr.de/xsd/sumoConfiguration.xsd">

    <input>
        <net-file value="UC5_1.net.xml"/>
        <route-files value="routes_trafficMix_0_trafficDemand_1_driverBehaviour_OS_seed_0.xml"/>
        <additional-files value="additionalsOutput_trafficMix_0_trafficDemand_1_driverBehaviour_OS_seed_0.xml,vTypesCAVToC_OS.add.xml,vTypesCVToC_OS.add.xml,vTypesLV_OS.add.xml,../shapes.add.xml,../view.add.xml"/>
    </input>

    <output>
        <tripinfo-output value="/home/anoulis/workspace/tor-distribution/outputs/simulations/runner//tripinfo_6.xml"/>
    </output>

    <time>
        <step-length value="0.1"/>
    </time>

    <processing>
        <step-method.ballistic value="true"/>
        <ignore-route-errors value="true"/>
        <lanechange.duration value="2.5"/>
    </processing>

    <report>
        <no-step-log value="true"/>
    </report>

    <toc_device>
        <device.toc.ogNewTimeHeadway value="100"/>
        <device.toc.ogNewSpaceHeadway value="5"/>
        <device.toc.ogMaxDecel value="1"/>
        <device.toc.ogChangeRate value="1"/>
    </toc_device>

    <traci_server>
        <remote-port value="45677"/>
    </traci_server>

    <random_number>
        <seed value="1030"/>
    </random_number>

    <gui_only>
        <tracker-interval value="0.1"/>
    </gui_only>

</configuration>
-->

<tripinfos xmlns:xsi="http://www.w3.org/2001/XMLSchema-instance" xsi:noNamespaceSchemaLocation="http://sumo.dlr.de/xsd/tripinfo_file.xsd">
    <tripinfo id="CAVToC.1" depart="3.30" departLane="entry_1" departPos="83.45" departSpeed="36.49" departDelay="0.00" arrival="131.50" arrivalLane="e0_1" arrivalPos="4800.00" arrivalSpeed="38.99" duration="128.20" routeLength="4916.55" waitingTime="0.00" waitingCount="0" stopTime="0.00" timeLoss="2.14" rerouteNo="0" devices="tripinfo_CAVToC.1 routing_CAVToC.1 ssm_CAVToC.1 toc_CAVToC.1 driverstateCAVToC.1" vType="vehLVOS524" speedFactor="1.08" vaporized=""/>
    <tripinfo id="LV.1" depart="6.70" departLane="entry_1" departPos="134.40" departSpeed="39.39" departDelay="0.00" arrival="133.40" arrivalLane="e0_0" arrivalPos="4800.00" arrivalSpeed="39.34" duration="126.70" routeLength="4865.60" waitingTime="0.00" waitingCount="0" stopTime="0.00" timeLoss="3.10" rerouteNo="0" devices="tripinfo_LV.1 routing_LV.1 ssm_LV.1" vType="vehLVOS289" speedFactor="1.09" vaporized=""/>
    <tripinfo id="CAVToC.2" depart="6.70" departLane="entry_1" departPos="42.54" departSpeed="37.15" departDelay="0.00" arrival="134.80" arrivalLane="e0_1" arrivalPos="4800.00" arrivalSpeed="43.99" duration="128.10" routeLength="4957.46" waitingTime="0.00" waitingCount="0" stopTime="0.00" timeLoss="15.67" rerouteNo="0" devices="tripinfo_CAVToC.2 routing_CAVToC.2 ssm_CAVToC.2 toc_CAVToC.2 driverstateCAVToC.2" vType="vehLVOS54" speedFactor="1.22" vaporized=""/>
    <tripinfo id="LV.0" depart="2.10" departLane="entry_1" departPos="125.88" departSpeed="36.69" departDelay="0.00" arrival="135.30" arrivalLane="e0_0" arrivalPos="4800.00" arrivalSpeed="36.69" duration="133.20" routeLength="4874.12" waitingTime="0.00" waitingCount="0" stopTime="0.00" timeLoss="0.26" rerouteNo="0" devices="tripinfo_LV.0 routing_LV.0 ssm_LV.0" vType="vehLVOS158" speedFactor="1.02" vaporized=""/>
    <tripinfo id="CVToC.1" depart="10.00" departLane="entry_1" departPos="2.87" departSpeed="36.49" departDelay="0.00" arrival="140.40" arrivalLane="e0_1" arrivalPos="4800.00" arrivalSpeed="39.01" duration="130.40" routeLength="4997.13" waitingTime="0.00" waitingCount="0" stopTime="0.00" timeLoss="2.32" rerouteNo="0" devices="tripinfo_CVToC.1 routing_CVToC.1 ssm_CVToC.1 toc_CVToC.1 driverstateCVToC.1" vType="vehLVOS216" speedFactor="1.08" vaporized=""/>
    <tripinfo id="CAVToC.3" depart="6.90" departLane="entry_0" departPos="199.90" departSpeed="36.96" departDelay="0.00" arrival="142.20" arrivalLane="e0_1" arrivalPos="4800.00" arrivalSpeed="42.64" duration="135.30" routeLength="4800.10" waitingTime="0.00" waitingCount="0" stopTime="0.00" timeLoss="22.79" rerouteNo="0" devices="tripinfo_CAVToC.3 routing_CAVToC.3 ssm_CAVToC.3 toc_CAVToC.3 driverstateCAVToC.3" vType="vehLVOS235" speedFactor="1.18" vaporized=""/>
    <tripinfo id="CVToC.0" depart="8.60" departLane="entry_1" departPos="34.16" departSpeed="36.34" departDelay="0.00" arrival="142.50" arrivalLane="e0_0" arrivalPos="4800.00" arrivalSpeed="37.14" duration="133.90" routeLength="4965.84" waitingTime="0.00" waitingCount="0" stopTime="0.00" timeLoss="0.26" rerouteNo="0" devices="tripinfo_CVToC.0 routing_CVToC.0 ssm_CVToC.0 toc_CVToC.0 driverstateCVToC.0" vType="vehLVOS918" speedFactor="1.03" vaporized=""/>
    <tripinfo id="CAVToC.4" depart="7.40" departLane="entry_0" departPos="138.03" departSpeed="36.14" departDelay="0.00" arrival="145.70" arrivalLane="e0_0" arrivalPos="4800.00" arrivalSpeed="36.74" duration="138.30" routeLength="4861.97" waitingTime="0.00" waitingCount="0" stopTime="0.00" timeLoss="6.24" rerouteNo="0" devices="tripinfo_CAVToC.4 routing_CAVToC.4 ssm_CAVToC.4 toc_CAVToC.4 driverstateCAVToC.4" vType="vehLVOS268" speedFactor="1.02" vaporized=""/>
    <tripinfo id="CAVToC.5" depart="14.40" departLane="entry_1" departPos="1.18" departSpeed="34.40" departDelay="0.00" arrival="151.50" arrivalLane="e0_0" arrivalPos="4800.00" arrivalSpeed="37.34" duration="137.10" routeLength="4998.82" waitingTime="0.00" waitingCount="0" stopTime="0.00" timeLoss="3.21" rerouteNo="0" devices="tripinfo_CAVToC.5 routing_CAVToC.5 ssm_CAVToC.5 toc_CAVToC.5 driverstateCAVToC.5" vType="vehLVOS71" speedFactor="1.03" vaporized=""/>
    <tripinfo id="CVToC.5" depart="19.50" departLane="entry_0" departPos="2.64" departSpeed="29.30" departDelay="0.00" arrival="154.00" arrivalLane="e0_1" arrivalPos="4800.00" arrivalSpeed="38.19" duration="134.50" routeLength="4997.36" waitingTime="0.00" waitingCount="0" stopTime="0.00" timeLoss="3.70" rerouteNo="0" devices="tripinfo_CVToC.5 routing_CVToC.5 ssm_CVToC.5 toc_CVToC.5 driverstateCVToC.5" vType="vehLVOS515" speedFactor="1.06" vaporized=""/>
    <tripinfo id="CAVToC.0" depart="0.50" departLane="entry_1" departPos="199.90" departSpeed="30.92" departDelay="0.00" arrival="156.10" arrivalLane="e0_0" arrivalPos="4800.00" arrivalSpeed="30.83" duration="155.60" routeLength="4800.10" waitingTime="0.00" waitingCount="0" stopTime="0.00" timeLoss="0.31" rerouteNo="0" devices="tripinfo_CAVToC.0 routing_CAVToC.0 ssm_CAVToC.0 toc_CAVToC.0 driverstateCAVToC.0" vType="vehLVOS616" speedFactor="0.86" vaporized=""/>
    <tripinfo id="CVToC.3" depart="12.20" departLane="entry_1" departPos="8.52" departSpeed="33.94" departDelay="0.00" arrival="159.30" arrivalLane="e0_0" arrivalPos="4800.00" arrivalSpeed="33.94" duration="147.10" routeLength="4991.48" waitingTime="0.00" waitingCount="0" stopTime="0.00" timeLoss="0.02" rerouteNo="0" devices="tripinfo_CVToC.3 routing_CVToC.3 ssm_CVToC.3 toc_CVToC.3 driverstateCVToC.3" vType="vehLVOS578" speedFactor="0.94" vaporized=""/>
    <tripinfo id="CAVToC.6" depart="16.00" departLane="entry_0" departPos="133.08" departSpeed="27.32" departDelay="0.10" arrival="161.70" arrivalLane="e0_1" arrivalPos="4800.00" arrivalSpeed="37.95" duration="145.70" routeLength="4866.92" waitingTime="0.00" waitingCount="0" stopTime="0.00" timeLoss="17.37" rerouteNo="0" devices="tripinfo_CAVToC.6 routing_CAVToC.6 ssm_CAVToC.6 toc_CAVToC.6 driverstateCAVToC.6" vType="vehLVOS222" speedFactor="1.05" vaporized=""/>
    <tripinfo id="CAVToC.9" depart="26.70" departLane="entry_1" departPos="62.45" departSpeed="33.99" departDelay="0.10" arrival="163.20" arrivalLane="e0_1" arrivalPos="4800.00" arrivalSpeed="38.45" duration="136.50" routeLength="4937.55" waitingTime="0.00" waitingCount="0" stopTime="0.00" timeLoss="8.05" rerouteNo="0" devices="tripinfo_CAVToC.9 routing_CAVToC.9 ssm_CAVToC.9 toc_CAVToC.9 driverstateCAVToC.9" vType="vehLVOS606" speedFactor="1.06" vaporized=""/>
    <tripinfo id="LV.2" depart="29.80" departLane="entry_1" departPos="1.90" departSpeed="43.85" departDelay="6.70" arrival="165.00" arrivalLane="e0_1" arrivalPos="4800.00" arrivalSpeed="41.95" duration="135.20" routeLength="4998.10" waitingTime="0.00" waitingCount="0" stopTime="0.00" timeLoss="21.19" rerouteNo="0" devices="tripinfo_LV.2 routing_LV.2 ssm_LV.2" vType="vehLVOS332" speedFactor="1.21" vaporized=""/>
    <tripinfo id="CVToC.7" depart="24.30" departLane="entry_1" departPos="70.51" departSpeed="31.85" departDelay="0.00" arrival="166.70" arrivalLane="e0_0" arrivalPos="4800.00" arrivalSpeed="34.73" duration="142.40" routeLength="4929.49" waitingTime="0.00" waitingCount="0" stopTime="0.00" timeLoss="0.53" rerouteNo="0" devices="tripinfo_CVToC.7 routing_CVToC.7 ssm_CVToC.7 toc_CVToC.7 driverstateCVToC.7" vType="vehLVOS545" speedFactor="0.96" vaporized=""/>
    <tripinfo id="CAVToC.10" depart="33.10" departLane="entry_1" departPos="69.00" departSpeed="36.35" departDelay="0.00" arrival="171.10" arrivalLane="e0_0" arrivalPos="4800.00" arrivalSpeed="37.15" duration="138.00" routeLength="4931.00" waitingTime="0.00" waitingCount="0" stopTime="0.00" timeLoss="5.37" rerouteNo="0" devices="tripinfo_CAVToC.10 routing_CAVToC.10 ssm_CAVToC.10 toc_CAVToC.10 driverstateCAVToC.10" vType="vehLVOS284" speedFactor="1.03" vaporized=""/>
    <tripinfo id="LV.3" depart="31.80" departLane="entry_0" departPos="42.75" departSpeed="36.81" departDelay="0.00" arrival="173.30" arrivalLane="e0_0" arrivalPos="4800.00" arrivalSpeed="36.74" duration="141.50" routeLength="4957.25" waitingTime="0.00" waitingCount="0" stopTime="0.00" timeLoss="6.76" rerouteNo="0" devices="tripinfo_LV.3 routing_LV.3 ssm_LV.3" vType="vehLVOS542" speedFactor="1.02" vaporized=""/>
    <tripinfo id="CVToC.8" depart="28.40" departLane="entry_0" departPos="162.23" departSpeed="25.38" departDelay="0.00" arrival="179.40" arrivalLane="e0_0" arrivalPos="4800.00" arrivalSpeed="35.58" duration="151.00" routeLength="4837.77" waitingTime="0.00" waitingCount="0" stopTime="0.00" timeLoss="15.19" rerouteNo="0" devices="tripinfo_CVToC.8 routing_CVToC.8 ssm_CVToC.8 toc_CVToC.8 driverstateCVToC.8" vType="vehLVOS345" speedFactor="0.99" vaporized=""/>
    <tripinfo id="CAVToC.12" depart="37.60" departLane="entry_1" departPos="154.63" departSpeed="37.33" departDelay="0.20" arrival="180.20" arrivalLane="e0_1" arrivalPos="4800.00" arrivalSpeed="37.39" duration="142.60" routeLength="4845.37" waitingTime="0.00" waitingCount="0" stopTime="0.00" timeLoss="13.41" rerouteNo="0" devices="tripinfo_CAVToC.12 routing_CAVToC.12 ssm_CAVToC.12 toc_CAVToC.12 driverstateCAVToC.12" vType="vehLVOS432" speedFactor="1.04" vaporized=""/>
    <tripinfo id="CAVToC.16" depart="40.30" departLane="entry_1" departPos="157.76" departSpeed="29.66" departDelay="0.10" arrival="182.50" arrivalLane="e0_0" arrivalPos="4800.00" arrivalSpeed="38.71" duration="142.20" routeLength="4842.24" waitingTime="0.00" waitingCount="0" stopTime="0.00" timeLoss="17.19" rerouteNo="0" devices="tripinfo_CAVToC.16 routing_CAVToC.16 ssm_CAVToC.16 toc_CAVToC.16 driverstateCAVToC.16" vType="vehLVOS678" speedFactor="1.07" vaporized=""/>
    <tripinfo id="CAVToC.17" depart="42.40" departLane="entry_1" departPos="2.10" departSpeed="29.40" departDelay="1.50" arrival="187.50" arrivalLane="e0_1" arrivalPos="4800.00" arrivalSpeed="37.82" duration="145.10" routeLength="4997.90" waitingTime="0.00" waitingCount="0" stopTime="0.00" timeLoss="12.86" rerouteNo="0" devices="tripinfo_CAVToC.17 routing_CAVToC.17 ssm_CAVToC.17 toc_CAVToC.17 driverstateCAVToC.17" vType="vehLVOS293" speedFactor="1.05" vaporized=""/>
    <tripinfo id="CAVToC.14" depart="39.60" departLane="entry_0" departPos="1.39" departSpeed="28.55" departDelay="0.90" arrival="187.80" arrivalLane="e0_0" arrivalPos="4800.00" arrivalSpeed="36.87" duration="148.20" routeLength="4998.61" waitingTime="0.00" waitingCount="0" stopTime="0.00" timeLoss="12.96" rerouteNo="0" devices="tripinfo_CAVToC.14 routing_CAVToC.14 ssm_CAVToC.14 toc_CAVToC.14 driverstateCAVToC.14" vType="vehLVOS588" speedFactor="1.02" vaporized=""/>
    <tripinfo id="LV.5" depart="46.30" departLane="entry_1" departPos="4.13" departSpeed="41.00" departDelay="1.80" arrival="188.80" arrivalLane="e0_1" arrivalPos="4800.00" arrivalSpeed="39.37" duration="142.50" routeLength="4995.87" waitingTime="0.00" waitingCount="0" stopTime="0.00" timeLoss="20.64" rerouteNo="0" devices="tripinfo_LV.5 routing_LV.5 ssm_LV.5" vType="vehLVOS601" speedFactor="1.14" vaporized=""/>
    <tripinfo id="CAVToC.20" depart="48.90" departLane="entry_1" departPos="39.38" departSpeed="34.26" departDelay="0.70" arrival="198.60" arrivalLane="e0_0" arrivalPos="4800.00" arrivalSpeed="34.08" duration="149.70" routeLength="4960.62" waitingTime="0.00" waitingCount="0" stopTime="0.00" timeLoss="4.88" rerouteNo="0" devices="tripinfo_CAVToC.20 routing_CAVToC.20 ssm_CAVToC.20 toc_CAVToC.20 driverstateCAVToC.20" vType="vehLVOS460" speedFactor="0.95" vaporized=""/>
    <tripinfo id="CAVToC.23" depart="50.80" departLane="entry_1" departPos="23.18" departSpeed="34.63" departDelay="1.50" arrival="199.60" arrivalLane="e0_1" arrivalPos="4800.00" arrivalSpeed="36.88" duration="148.80" routeLength="4976.82" waitingTime="0.00" waitingCount="0" stopTime="0.00" timeLoss="13.78" rerouteNo="0" devices="tripinfo_CAVToC.23 routing_CAVToC.23 ssm_CAVToC.23 toc_CAVToC.23 driverstateCAVToC.23" vType="vehLVOS568" speedFactor="1.02" vaporized=""/>
    <tripinfo id="CVToC.4" depart="15.30" departLane="entry_0" departPos="199.90" departSpeed="26.06" departDelay="0.20" arrival="201.20" arrivalLane="e0_1" arrivalPos="4800.00" arrivalSpeed="40.14" duration="185.90" routeLength="4800.10" waitingTime="0.00" waitingCount="0" stopTime="0.00" timeLoss="66.28" rerouteNo="0" devices="tripinfo_CVToC.4 routing_CVToC.4 ssm_CVToC.4 toc_CVToC.4 driverstateCVToC.4" vType="vehLVOS926" speedFactor="1.11" vaporized=""/>
    <tripinfo id="CAVToC.25" depart="52.30" departLane="entry_1" departPos="5.83" departSpeed="31.43" departDelay="0.20" arrival="211.60" arrivalLane="e0_1" arrivalPos="4800.00" arrivalSpeed="31.42" duration="159.30" routeLength="4994.17" waitingTime="0.00" waitingCount="0" stopTime="0.00" timeLoss="0.31" rerouteNo="0" devices="tripinfo_CAVToC.25 routing_CAVToC.25 ssm_CAVToC.25 toc_CAVToC.25 driverstateCAVToC.25" vType="vehLVOS267" speedFactor="0.87" vaporized=""/>
    <tripinfo id="CVToC.2" depart="11.30" departLane="entry_0" departPos="199.90" departSpeed="23.98" departDelay="0.00" arrival="211.70" arrivalLane="e0_0" arrivalPos="4800.00" arrivalSpeed="23.97" duration="200.40" routeLength="4800.10" waitingTime="0.00" waitingCount="0" stopTime="0.00" timeLoss="0.21" rerouteNo="0" devices="tripinfo_CVToC.2 routing_CVToC.2 ssm_CVToC.2 toc_CVToC.2 driverstateCVToC.2" vType="vehLVOS596" speedFactor="0.66" vaporized=""/>
    <tripinfo id="LV.7" depart="56.60" departLane="entry_1" departPos="12.69" departSpeed="41.71" departDelay="2.10" arrival="212.80" arrivalLane="e0_1" arrivalPos="4800.00" arrivalSpeed="32.68" duration="156.20" routeLength="4987.31" waitingTime="0.00" waitingCount="0" stopTime="0.00" timeLoss="36.59" rerouteNo="0" devices="tripinfo_LV.7 routing_LV.7 ssm_LV.7" vType="vehLVOS237" speedFactor="1.16" vaporized=""/>
    <tripinfo id="CAVToC.7" depart="16.70" departLane="entry_0" departPos="75.57" departSpeed="28.03" departDelay="0.00" arrival="213.50" arrivalLane="e0_0" arrivalPos="4800.00" arrivalSpeed="26.87" duration="196.80" routeLength="4924.43" waitingTime="0.00" waitingCount="0" stopTime="0.00" timeLoss="50.97" rerouteNo="0" devices="tripinfo_CAVToC.7 routing_CAVToC.7 ssm_CAVToC.7 toc_CAVToC.7 driverstateCAVToC.7" vType="vehLVOS499" speedFactor="0.94" vaporized=""/>
    <tripinfo id="CVToC.11" depart="58.50" departLane="entry_1" departPos="13.59" departSpeed="35.26" departDelay="2.40" arrival="215.70" arrivalLane="e0_1" arrivalPos="4800.00" arrivalSpeed="35.23" duration="157.20" routeLength="4986.41" waitingTime="0.00" waitingCount="0" stopTime="0.00" timeLoss="15.71" rerouteNo="0" devices="tripinfo_CVToC.11 routing_CVToC.11 ssm_CVToC.11 toc_CVToC.11 driverstateCVToC.11" vType="vehLVOS568" speedFactor="0.98" vaporized=""/>
    <tripinfo id="CAVToC.8" depart="17.80" departLane="entry_0" departPos="38.49" departSpeed="28.38" departDelay="0.00" arrival="215.90" arrivalLane="e0_0" arrivalPos="4800.00" arrivalSpeed="30.08" duration="198.10" routeLength="4961.51" waitingTime="0.00" waitingCount="0" stopTime="0.00" timeLoss="41.51" rerouteNo="0" devices="tripinfo_CAVToC.8 routing_CAVToC.8 ssm_CAVToC.8 toc_CAVToC.8 driverstateCAVToC.8" vType="vehLVOS589" speedFactor="0.88" vaporized=""/>
    <tripinfo id="CAVToC.11" depart="36.60" departLane="entry_0" departPos="127.37" departSpeed="30.16" departDelay="0.00" arrival="216.70" arrivalLane="e0_1" arrivalPos="4800.00" arrivalSpeed="34.52" duration="180.10" routeLength="4872.63" waitingTime="0.00" waitingCount="0" stopTime="0.00" timeLoss="38.94" rerouteNo="0" devices="tripinfo_CAVToC.11 routing_CAVToC.11 ssm_CAVToC.11 toc_CAVToC.11 driverstateCAVToC.11" vType="vehLVOS980" speedFactor="0.96" vaporized=""/>
    <tripinfo id="CVToC.6" depart="24.40" departLane="entry_0" departPos="140.23" departSpeed="26.98" departDelay="0.30" arrival="217.60" arrivalLane="e0_0" arrivalPos="4800.00" arrivalSpeed="29.10" duration="193.20" routeLength="4859.77" waitingTime="0.00" waitingCount="0" stopTime="0.00" timeLoss="62.79" rerouteNo="0" devices="tripinfo_CVToC.6 routing_CVToC.6 ssm_CVToC.6 toc_CVToC.6 driverstateCVToC.6" vType="vehLVOS915" speedFactor="1.03" vaporized=""/>
    <tripinfo id="CVToC.9" depart="30.00" departLane="entry_0" departPos="127.61" departSpeed="25.70" departDelay="0.30" arrival="220.00" arrivalLane="e0_0" arrivalPos="4800.00" arrivalSpeed="29.63" duration="190.00" routeLength="4872.39" waitingTime="0.00" waitingCount="0" stopTime="0.00" timeLoss="50.41" rerouteNo="0" devices="tripinfo_CVToC.9 routing_CVToC.9 ssm_CVToC.9 toc_CVToC.9 driverstateCVToC.9" vType="vehLVOS18" speedFactor="0.97" vaporized=""/>
    <tripinfo id="LV.8" depart="57.20" departLane="entry_0" departPos="37.17" departSpeed="30.38" departDelay="1.90" arrival="221.90" arrivalLane="e0_1" arrivalPos="4800.00" arrivalSpeed="30.31" duration="164.70" routeLength="4962.83" waitingTime="0.00" waitingCount="0" stopTime="0.00" timeLoss="1.30" rerouteNo="0" devices="tripinfo_LV.8 routing_LV.8 ssm_LV.8" vType="vehLVOS194" speedFactor="0.84" vaporized=""/>
    <tripinfo id="CAVToC.13" depart="38.60" departLane="entry_0" departPos="112.98" departSpeed="29.43" departDelay="0.00" arrival="222.60" arrivalLane="e0_0" arrivalPos="4800.00" arrivalSpeed="29.71" duration="184.00" routeLength="4887.02" waitingTime="0.00" waitingCount="0" stopTime="0.00" timeLoss="42.00" rerouteNo="0" devices="tripinfo_CAVToC.13 routing_CAVToC.13 ssm_CAVToC.13 toc_CAVToC.13 driverstateCAVToC.13" vType="vehLVOS716" speedFactor="0.95" vaporized=""/>
    <tripinfo id="CVToC.13" depart="61.30" departLane="entry_1" departPos="34.53" departSpeed="35.57" departDelay="2.40" arrival="225.50" arrivalLane="e0_1" arrivalPos="4800.00" arrivalSpeed="37.37" duration="164.20" routeLength="4965.47" waitingTime="0.00" waitingCount="0" stopTime="0.00" timeLoss="31.55" rerouteNo="0" devices="tripinfo_CVToC.13 routing_CVToC.13 ssm_CVToC.13 toc_CVToC.13 driverstateCVToC.13" vType="vehLVOS243" speedFactor="1.04" vaporized=""/>
    <tripinfo id="CVToC.17" depart="63.00" departLane="entry_1" departPos="0.67" departSpeed="36.57" departDelay="1.70" arrival="227.10" arrivalLane="e0_1" arrivalPos="4800.00" arrivalSpeed="36.34" duration="164.10" routeLength="4999.33" waitingTime="0.00" waitingCount="0" stopTime="0.00" timeLoss="54.07" rerouteNo="0" devices="tripinfo_CVToC.17 routing_CVToC.17 ssm_CVToC.17 toc_CVToC.17 driverstateCVToC.17" vType="vehLVOS895" speedFactor="1.26" vaporized=""/>
    <tripinfo id="CAVToC.15" depart="39.50" departLane="entry_0" departPos="78.07" departSpeed="27.51" departDelay="0.10" arrival="227.50" arrivalLane="e0_0" arrivalPos="4800.00" arrivalSpeed="27.50" duration="188.00" routeLength="4921.93" waitingTime="0.00" waitingCount="0" stopTime="0.00" timeLoss="9.02" rerouteNo="0" devices="tripinfo_CAVToC.15 routing_CAVToC.15 ssm_CAVToC.15 toc_CAVToC.15 driverstateCAVToC.15" vType="vehLVOS610" speedFactor="0.76" vaporized=""/>
    <tripinfo id="CAVToC.18" depart="42.70" departLane="entry_0" departPos="84.72" departSpeed="28.65" departDelay="0.70" arrival="228.80" arrivalLane="e0_0" arrivalPos="4800.00" arrivalSpeed="28.90" duration="186.10" routeLength="4915.28" waitingTime="0.00" waitingCount="0" stopTime="0.00" timeLoss="56.72" rerouteNo="0" devices="tripinfo_CAVToC.18 routing_CAVToC.18 ssm_CAVToC.18 toc_CAVToC.18 driverstateCAVToC.18" vType="vehLVOS375" speedFactor="1.05" vaporized=""/>
    <tripinfo id="CVToC.14" depart="65.20" departLane="entry_1" departPos="5.70" departSpeed="35.02" departDelay="5.90" arrival="229.20" arrivalLane="e0_1" arrivalPos="4800.00" arrivalSpeed="34.78" duration="164.00" routeLength="4994.30" waitingTime="0.00" waitingCount="0" stopTime="0.00" timeLoss="21.34" rerouteNo="0" devices="tripinfo_CVToC.14 routing_CVToC.14 ssm_CVToC.14 toc_CVToC.14 driverstateCVToC.14" vType="vehLVOS62" speedFactor="0.97" vaporized=""/>
    <tripinfo id="CAVToC.19" depart="44.60" departLane="entry_0" departPos="52.55" departSpeed="29.68" departDelay="0.20" arrival="230.40" arrivalLane="e0_0" arrivalPos="4800.00" arrivalSpeed="31.67" duration="185.80" routeLength="4947.45" waitingTime="0.00" waitingCount="0" stopTime="0.00" timeLoss="58.27" rerouteNo="0" devices="tripinfo_CAVToC.19 routing_CAVToC.19 ssm_CAVToC.19 toc_CAVToC.19 driverstateCAVToC.19" vType="vehLVOS642" speedFactor="1.07" vaporized=""/>
    <tripinfo id="CAVToC.27" depart="67.40" departLane="entry_1" departPos="10.43" departSpeed="35.19" departDelay="2.80" arrival="230.60" arrivalLane="e0_1" arrivalPos="4800.00" arrivalSpeed="35.58" duration="163.20" routeLength="4989.57" waitingTime="0.00" waitingCount="0" stopTime="0.00" timeLoss="23.09" rerouteNo="0" devices="tripinfo_CAVToC.27 routing_CAVToC.27 ssm_CAVToC.27 toc_CAVToC.27 driverstateCAVToC.27" vType="vehLVOS819" speedFactor="0.99" vaporized=""/>
    <tripinfo id="CVToC.10" depart="48.10" departLane="entry_0" departPos="89.07" departSpeed="29.66" departDelay="0.00" arrival="234.00" arrivalLane="e0_0" arrivalPos="4800.00" arrivalSpeed="31.25" duration="185.90" routeLength="4910.93" waitingTime="0.00" waitingCount="0" stopTime="0.00" timeLoss="28.86" rerouteNo="0" devices="tripinfo_CVToC.10 routing_CVToC.10 ssm_CVToC.10 toc_CVToC.10 driverstateCVToC.10" vType="vehLVOS532" speedFactor="0.87" vaporized=""/>
    <tripinfo id="CVToC.16" depart="61.00" departLane="entry_0" departPos="5.19" departSpeed="30.22" departDelay="0.40" arrival="234.60" arrivalLane="e0_1" arrivalPos="4800.00" arrivalSpeed="35.26" duration="173.60" routeLength="4994.81" waitingTime="0.00" waitingCount="0" stopTime="0.00" timeLoss="31.91" rerouteNo="0" devices="tripinfo_CVToC.16 routing_CVToC.16 ssm_CVToC.16 toc_CVToC.16 driverstateCVToC.16" vType="vehLVOS472" speedFactor="0.98" vaporized=""/>
    <tripinfo id="CAVToC.28" depart="69.60" departLane="entry_1" departPos="1.23" departSpeed="35.58" departDelay="2.10" arrival="235.60" arrivalLane="e0_1" arrivalPos="4800.00" arrivalSpeed="36.54" duration="166.00" routeLength="4998.77" waitingTime="0.00" waitingCount="0" stopTime="0.00" timeLoss="37.53" rerouteNo="0" devices="tripinfo_CAVToC.28 routing_CAVToC.28 ssm_CAVToC.28 toc_CAVToC.28 driverstateCAVToC.28" vType="vehLVOS575" speedFactor="1.08" vaporized=""/>
    <tripinfo id="CAVToC.21" depart="49.80" departLane="entry_0" departPos="69.85" departSpeed="29.75" departDelay="0.90" arrival="235.80" arrivalLane="e0_0" arrivalPos="4800.00" arrivalSpeed="30.87" duration="186.00" routeLength="4930.15" waitingTime="0.00" waitingCount="0" stopTime="0.00" timeLoss="26.40" rerouteNo="0" devices="tripinfo_CAVToC.21 routing_CAVToC.21 ssm_CAVToC.21 toc_CAVToC.21 driverstateCAVToC.21" vType="vehLVOS150" speedFactor="0.86" vaporized=""/>
    <tripinfo id="CVToC.20" depart="72.80" departLane="entry_1" departPos="29.23" departSpeed="34.46" departDelay="0.50" arrival="236.50" arrivalLane="e0_1" arrivalPos="4800.00" arrivalSpeed="37.02" duration="163.70" routeLength="4970.77" waitingTime="0.00" waitingCount="0" stopTime="0.00" timeLoss="35.79" rerouteNo="0" devices="tripinfo_CVToC.20 routing_CVToC.20 ssm_CVToC.20 toc_CVToC.20 driverstateCVToC.20" vType="vehLVOS880" speedFactor="1.08" vaporized=""/>
    <tripinfo id="CAVToC.22" depart="50.60" departLane="entry_0" departPos="10.93" departSpeed="30.59" departDelay="1.50" arrival="236.70" arrivalLane="e0_0" arrivalPos="4800.00" arrivalSpeed="33.09" duration="186.10" routeLength="4989.07" waitingTime="0.00" waitingCount="0" stopTime="0.00" timeLoss="53.03" rerouteNo="0" devices="tripinfo_CAVToC.22 routing_CAVToC.22 ssm_CAVToC.22 toc_CAVToC.22 driverstateCAVToC.22" vType="vehLVOS201" speedFactor="1.04" vaporized=""/>
    <tripinfo id="CAVToC.24" depart="53.00" departLane="entry_0" departPos="3.94" departSpeed="30.99" departDelay="1.40" arrival="238.40" arrivalLane="e0_0" arrivalPos="4800.00" arrivalSpeed="32.63" duration="185.40" routeLength="4996.06" waitingTime="0.00" waitingCount="0" stopTime="0.00" timeLoss="44.58" rerouteNo="0" devices="tripinfo_CAVToC.24 routing_CAVToC.24 ssm_CAVToC.24 toc_CAVToC.24 driverstateCAVToC.24" vType="vehLVOS321" speedFactor="0.98" vaporized=""/>
    <tripinfo id="CVToC.19" depart="75.60" departLane="entry_1" departPos="47.07" departSpeed="33.49" departDelay="5.80" arrival="239.00" arrivalLane="e0_1" arrivalPos="4800.00" arrivalSpeed="35.43" duration="163.40" routeLength="4952.93" waitingTime="0.00" waitingCount="0" stopTime="0.00" timeLoss="23.79" rerouteNo="0" devices="tripinfo_CVToC.19 routing_CVToC.19 ssm_CVToC.19 toc_CVToC.19 driverstateCVToC.19" vType="vehLVOS466" speedFactor="0.98" vaporized=""/>
    <tripinfo id="CVToC.12" depart="56.50" departLane="entry_0" departPos="40.31" departSpeed="31.31" departDelay="0.20" arrival="240.20" arrivalLane="e0_0" arrivalPos="4800.00" arrivalSpeed="33.37" duration="183.70" routeLength="4959.69" waitingTime="0.00" waitingCount="0" stopTime="0.00" timeLoss="40.17" rerouteNo="0" devices="tripinfo_CVToC.12 routing_CVToC.12 ssm_CVToC.12 toc_CVToC.12 driverstateCVToC.12" vType="vehLVOS18" speedFactor="0.96" vaporized=""/>
    <tripinfo id="LV.12" depart="73.10" departLane="entry_0" departPos="36.74" departSpeed="34.58" departDelay="2.90" arrival="240.60" arrivalLane="e0_1" arrivalPos="4800.00" arrivalSpeed="34.57" duration="167.50" routeLength="4963.26" waitingTime="0.00" waitingCount="0" stopTime="0.00" timeLoss="23.93" rerouteNo="0" devices="tripinfo_LV.12 routing_LV.12 ssm_LV.12" vType="vehLVOS25" speedFactor="0.96" vaporized=""/>
    <tripinfo id="CAVToC.30" depart="76.50" departLane="entry_1" departPos="2.56" departSpeed="33.62" departDelay="1.80" arrival="242.60" arrivalLane="e0_1" arrivalPos="4800.00" arrivalSpeed="35.35" duration="166.10" routeLength="4997.44" waitingTime="0.00" waitingCount="0" stopTime="0.00" timeLoss="24.73" rerouteNo="0" devices="tripinfo_CAVToC.30 routing_CAVToC.30 ssm_CAVToC.30 toc_CAVToC.30 driverstateCAVToC.30" vType="vehLVOS652" speedFactor="0.98" vaporized=""/>
    <tripinfo id="CAVToC.26" depart="59.20" departLane="entry_0" departPos="27.50" departSpeed="30.13" departDelay="0.30" arrival="242.70" arrivalLane="e0_0" arrivalPos="4800.00" arrivalSpeed="31.92" duration="183.50" routeLength="4972.50" waitingTime="0.00" waitingCount="0" stopTime="0.00" timeLoss="27.96" rerouteNo="0" devices="tripinfo_CAVToC.26 routing_CAVToC.26 ssm_CAVToC.26 toc_CAVToC.26 driverstateCAVToC.26" vType="vehLVOS533" speedFactor="0.89" vaporized=""/>
    <tripinfo id="CAVToC.32" depart="80.00" departLane="entry_1" departPos="40.97" departSpeed="33.32" departDelay="3.20" arrival="243.70" arrivalLane="e0_1" arrivalPos="4800.00" arrivalSpeed="35.93" duration="163.70" routeLength="4959.03" waitingTime="0.00" waitingCount="0" stopTime="0.00" timeLoss="25.72" rerouteNo="0" devices="tripinfo_CAVToC.32 routing_CAVToC.32 ssm_CAVToC.32 toc_CAVToC.32 driverstateCAVToC.32" vType="vehLVOS853" speedFactor="1.00" vaporized=""/>
    <tripinfo id="CVToC.15" depart="63.40" departLane="entry_0" departPos="1.34" departSpeed="30.04" departDelay="3.70" arrival="244.20" arrivalLane="e0_0" arrivalPos="4800.00" arrivalSpeed="35.17" duration="180.80" routeLength="4998.66" waitingTime="0.00" waitingCount="0" stopTime="0.00" timeLoss="42.77" rerouteNo="0" devices="tripinfo_CVToC.15 routing_CVToC.15 ssm_CVToC.15 toc_CVToC.15 driverstateCVToC.15" vType="vehLVOS424" speedFactor="1.00" vaporized=""/>
    <tripinfo id="LV.6" depart="83.80" departLane="entry_1" departPos="21.19" departSpeed="40.61" departDelay="38.10" arrival="245.60" arrivalLane="e0_1" arrivalPos="4800.00" arrivalSpeed="37.15" duration="161.80" routeLength="4978.81" waitingTime="0.00" waitingCount="0" stopTime="0.00" timeLoss="39.17" rerouteNo="0" devices="tripinfo_LV.6 routing_LV.6 ssm_LV.6" vType="vehLVOS583" speedFactor="1.12" vaporized=""/>
    <tripinfo id="CVToC.18" depart="67.20" departLane="entry_0" departPos="17.83" departSpeed="30.54" departDelay="4.60" arrival="246.00" arrivalLane="e0_0" arrivalPos="4800.00" arrivalSpeed="34.79" duration="178.80" routeLength="4982.17" waitingTime="0.00" waitingCount="0" stopTime="0.00" timeLoss="68.80" rerouteNo="0" devices="tripinfo_CVToC.18 routing_CVToC.18 ssm_CVToC.18 toc_CVToC.18 driverstateCVToC.18" vType="vehLVOS73" speedFactor="1.26" vaporized=""/>