<?xml version="1.0" encoding="UTF-8"?>

<!-- generated on Fri Jun 12 15:59:39 2020 by Eclipse SUMO Version v1_5_0+0820-fb638dbcbf
<configuration xmlns:xsi="http://www.w3.org/2001/XMLSchema-instance" xsi:noNamespaceSchemaLocation="http://sumo.dlr.de/xsd/sumoConfiguration.xsd">

    <input>
        <net-file value="UC5_1.net.xml"/>
        <route-files value="routes_trafficMix_0_trafficDemand_1_driverBehaviour_OS_seed_0.xml"/>
        <additional-files value="additionalsOutput_trafficMix_0_trafficDemand_1_driverBehaviour_OS_seed_0.xml,vTypesCAVToC_OS.add.xml,vTypesCVToC_OS.add.xml,vTypesLV_OS.add.xml,../shapes.add.xml,../view.add.xml"/>
    </input>

    <output>
        <tripinfo-output value="/home/anoulis/workspace/tor-distribution/outputs/simulations/runner//tripinfo_9.xml"/>
    </output>

    <time>
        <step-length value="0.1"/>
    </time>

    <processing>
        <step-method.ballistic value="true"/>
        <ignore-route-errors value="true"/>
        <lanechange.duration value="2.5"/>
    </processing>

    <report>
        <no-step-log value="true"/>
    </report>

    <toc_device>
        <device.toc.ogNewTimeHeadway value="100"/>
        <device.toc.ogNewSpaceHeadway value="5"/>
        <device.toc.ogMaxDecel value="1"/>
        <device.toc.ogChangeRate value="1"/>
    </toc_device>

    <traci_server>
        <remote-port value="58687"/>
    </traci_server>

    <random_number>
        <seed value="1033"/>
    </random_number>

    <gui_only>
        <tracker-interval value="0.1"/>
    </gui_only>

</configuration>
-->

<tripinfos xmlns:xsi="http://www.w3.org/2001/XMLSchema-instance" xsi:noNamespaceSchemaLocation="http://sumo.dlr.de/xsd/tripinfo_file.xsd">
    <tripinfo id="CAVToC.1" depart="3.70" departLane="entry_1" departPos="199.90" departSpeed="35.60" departDelay="0.00" arrival="130.40" arrivalLane="e0_1" arrivalPos="4800.00" arrivalSpeed="40.38" duration="126.70" routeLength="4800.10" waitingTime="0.00" waitingCount="0" stopTime="0.00" timeLoss="8.04" rerouteNo="0" devices="tripinfo_CAVToC.1 routing_CAVToC.1 ssm_CAVToC.1 toc_CAVToC.1 driverstateCAVToC.1" vType="vehLVOS374" speedFactor="1.12" vaporized=""/>
    <tripinfo id="CAVToC.2" depart="5.00" departLane="entry_1" departPos="153.93" departSpeed="36.31" departDelay="0.00" arrival="131.20" arrivalLane="e0_1" arrivalPos="4800.00" arrivalSpeed="41.35" duration="126.20" routeLength="4846.07" waitingTime="0.00" waitingCount="0" stopTime="0.00" timeLoss="11.00" rerouteNo="0" devices="tripinfo_CAVToC.2 routing_CAVToC.2 ssm_CAVToC.2 toc_CAVToC.2 driverstateCAVToC.2" vType="vehLVOS746" speedFactor="1.17" vaporized=""/>
    <tripinfo id="CVToC.0" depart="0.30" departLane="entry_0" departPos="199.90" departSpeed="36.57" departDelay="0.00" arrival="131.80" arrivalLane="e0_0" arrivalPos="4800.00" arrivalSpeed="36.44" duration="131.50" routeLength="4800.10" waitingTime="0.00" waitingCount="0" stopTime="0.00" timeLoss="0.23" rerouteNo="0" devices="tripinfo_CVToC.0 routing_CVToC.0 ssm_CVToC.0 toc_CVToC.0 driverstateCVToC.0" vType="vehLVOS588" speedFactor="1.01" vaporized=""/>
    <tripinfo id="CAVToC.0" depart="1.10" departLane="entry_1" departPos="199.90" departSpeed="34.84" departDelay="0.00" arrival="139.00" arrivalLane="e0_0" arrivalPos="4800.00" arrivalSpeed="34.82" duration="137.90" routeLength="4800.10" waitingTime="0.00" waitingCount="0" stopTime="0.00" timeLoss="0.09" rerouteNo="0" devices="tripinfo_CAVToC.0 routing_CAVToC.0 ssm_CAVToC.0 toc_CAVToC.0 driverstateCAVToC.0" vType="vehLVOS22" speedFactor="0.96" vaporized=""/>
    <tripinfo id="CAVToC.3" depart="5.40" departLane="entry_1" departPos="7.75" departSpeed="36.47" departDelay="0.00" arrival="139.60" arrivalLane="e0_1" arrivalPos="4800.00" arrivalSpeed="38.90" duration="134.20" routeLength="4992.25" waitingTime="0.00" waitingCount="0" stopTime="0.00" timeLoss="5.82" rerouteNo="0" devices="tripinfo_CAVToC.3 routing_CAVToC.3 ssm_CAVToC.3 toc_CAVToC.3 driverstateCAVToC.3" vType="vehLVOS277" speedFactor="1.08" vaporized=""/>
    <tripinfo id="CVToC.2" depart="5.10" departLane="entry_1" departPos="82.64" departSpeed="36.34" departDelay="0.00" arrival="142.30" arrivalLane="e0_1" arrivalPos="4800.00" arrivalSpeed="36.37" duration="137.20" routeLength="4917.36" waitingTime="0.00" waitingCount="0" stopTime="0.00" timeLoss="2.08" rerouteNo="0" devices="tripinfo_CVToC.2 routing_CVToC.2 ssm_CVToC.2 toc_CVToC.2 driverstateCVToC.2" vType="vehLVOS292" speedFactor="1.01" vaporized=""/>
    <tripinfo id="CVToC.1" depart="2.60" departLane="entry_0" departPos="199.90" departSpeed="34.22" departDelay="0.00" arrival="143.00" arrivalLane="e0_0" arrivalPos="4800.00" arrivalSpeed="34.15" duration="140.40" routeLength="4800.10" waitingTime="0.00" waitingCount="0" stopTime="0.00" timeLoss="0.12" rerouteNo="0" devices="tripinfo_CVToC.1 routing_CVToC.1 ssm_CVToC.1 toc_CVToC.1 driverstateCVToC.1" vType="vehLVOS968" speedFactor="0.95" vaporized=""/>
    <tripinfo id="CAVToC.6" depart="9.60" departLane="entry_1" departPos="83.15" departSpeed="35.80" departDelay="0.00" arrival="148.30" arrivalLane="e0_1" arrivalPos="4800.00" arrivalSpeed="35.76" duration="138.70" routeLength="4916.85" waitingTime="0.00" waitingCount="0" stopTime="0.00" timeLoss="1.34" rerouteNo="0" devices="tripinfo_CAVToC.6 routing_CAVToC.6 ssm_CAVToC.6 toc_CAVToC.6 driverstateCAVToC.6" vType="vehLVOS672" speedFactor="0.99" vaporized=""/>
    <tripinfo id="CVToC.3" depart="6.80" departLane="entry_0" departPos="199.90" departSpeed="33.72" departDelay="0.20" arrival="149.50" arrivalLane="e0_0" arrivalPos="4800.00" arrivalSpeed="33.72" duration="142.70" routeLength="4800.10" waitingTime="0.00" waitingCount="0" stopTime="0.00" timeLoss="0.30" rerouteNo="0" devices="tripinfo_CVToC.3 routing_CVToC.3 ssm_CVToC.3 toc_CVToC.3 driverstateCVToC.3" vType="vehLVOS844" speedFactor="0.93" vaporized=""/>
    <tripinfo id="CAVToC.8" depart="11.90" departLane="entry_1" departPos="72.81" departSpeed="31.02" departDelay="0.00" arrival="149.80" arrivalLane="e0_1" arrivalPos="4800.00" arrivalSpeed="37.56" duration="137.90" routeLength="4927.19" waitingTime="0.00" waitingCount="0" stopTime="0.00" timeLoss="6.71" rerouteNo="0" devices="tripinfo_CAVToC.8 routing_CAVToC.8 ssm_CAVToC.8 toc_CAVToC.8 driverstateCAVToC.8" vType="vehLVOS602" speedFactor="1.04" vaporized=""/>
    <tripinfo id="CAVToC.4" depart="6.90" departLane="entry_0" departPos="112.30" departSpeed="34.77" departDelay="0.00" arrival="151.40" arrivalLane="e0_0" arrivalPos="4800.00" arrivalSpeed="40.13" duration="144.50" routeLength="4887.70" waitingTime="0.00" waitingCount="0" stopTime="0.00" timeLoss="31.80" rerouteNo="0" devices="tripinfo_CAVToC.4 routing_CAVToC.4 ssm_CAVToC.4 toc_CAVToC.4 driverstateCAVToC.4" vType="vehLVOS376" speedFactor="1.20" vaporized=""/>
    <tripinfo id="CAVToC.5" depart="9.20" departLane="entry_0" departPos="121.30" departSpeed="34.77" departDelay="0.00" arrival="152.40" arrivalLane="e0_0" arrivalPos="4800.00" arrivalSpeed="34.98" duration="143.20" routeLength="4878.70" waitingTime="0.00" waitingCount="0" stopTime="0.00" timeLoss="3.73" rerouteNo="0" devices="tripinfo_CAVToC.5 routing_CAVToC.5 ssm_CAVToC.5 toc_CAVToC.5 driverstateCAVToC.5" vType="vehLVOS29" speedFactor="0.97" vaporized=""/>
    <tripinfo id="CAVToC.9" depart="13.60" departLane="entry_1" departPos="26.24" departSpeed="32.39" departDelay="0.00" arrival="153.70" arrivalLane="e0_1" arrivalPos="4800.00" arrivalSpeed="40.10" duration="140.10" routeLength="4973.76" waitingTime="0.00" waitingCount="0" stopTime="0.00" timeLoss="28.22" rerouteNo="0" devices="tripinfo_CAVToC.9 routing_CAVToC.9 ssm_CAVToC.9 toc_CAVToC.9 driverstateCAVToC.9" vType="vehLVOS502" speedFactor="1.23" vaporized=""/>
    <tripinfo id="CVToC.5" depart="16.60" departLane="entry_1" departPos="7.31" departSpeed="29.91" departDelay="0.40" arrival="155.40" arrivalLane="e0_1" arrivalPos="4800.00" arrivalSpeed="40.63" duration="138.80" routeLength="4992.69" waitingTime="0.00" waitingCount="0" stopTime="0.00" timeLoss="16.03" rerouteNo="0" devices="tripinfo_CVToC.5 routing_CVToC.5 ssm_CVToC.5 toc_CVToC.5 driverstateCVToC.5" vType="vehLVOS703" speedFactor="1.13" vaporized=""/>
    <tripinfo id="CVToC.7" depart="20.40" departLane="entry_1" departPos="36.44" departSpeed="30.84" departDelay="2.00" arrival="157.30" arrivalLane="e0_1" arrivalPos="4800.00" arrivalSpeed="40.29" duration="136.90" routeLength="4963.56" waitingTime="0.00" waitingCount="0" stopTime="0.00" timeLoss="13.96" rerouteNo="0" devices="tripinfo_CVToC.7 routing_CVToC.7 ssm_CVToC.7 toc_CVToC.7 driverstateCVToC.7" vType="vehLVOS74" speedFactor="1.12" vaporized=""/>
    <tripinfo id="CVToC.4" depart="9.50" departLane="entry_0" departPos="51.63" departSpeed="35.18" departDelay="0.00" arrival="159.60" arrivalLane="e0_1" arrivalPos="4800.00" arrivalSpeed="38.02" duration="150.10" routeLength="4948.37" waitingTime="0.00" waitingCount="0" stopTime="0.00" timeLoss="20.09" rerouteNo="0" devices="tripinfo_CVToC.4 routing_CVToC.4 ssm_CVToC.4 toc_CVToC.4 driverstateCVToC.4" vType="vehLVOS777" speedFactor="1.05" vaporized=""/>
    <tripinfo id="LV.1" depart="12.20" departLane="entry_0" departPos="5.24" departSpeed="35.19" departDelay="0.00" arrival="159.80" arrivalLane="e0_0" arrivalPos="4800.00" arrivalSpeed="35.10" duration="147.60" routeLength="4994.76" waitingTime="0.00" waitingCount="0" stopTime="0.00" timeLoss="5.62" rerouteNo="0" devices="tripinfo_LV.1 routing_LV.1 ssm_LV.1" vType="vehLVOS439" speedFactor="0.97" vaporized=""/>
    <tripinfo id="CAVToC.7" depart="11.20" departLane="entry_0" departPos="34.29" departSpeed="34.51" departDelay="0.00" arrival="166.10" arrivalLane="e0_0" arrivalPos="4800.00" arrivalSpeed="35.44" duration="154.90" routeLength="4965.71" waitingTime="0.00" waitingCount="0" stopTime="0.00" timeLoss="15.14" rerouteNo="0" devices="tripinfo_CAVToC.7 routing_CAVToC.7 ssm_CAVToC.7 toc_CAVToC.7 driverstateCAVToC.7" vType="vehLVOS198" speedFactor="0.98" vaporized=""/>
    <tripinfo id="LV.5" depart="27.00" departLane="entry_0" departPos="22.92" departSpeed="41.55" departDelay="3.10" arrival="167.70" arrivalLane="e0_1" arrivalPos="4800.00" arrivalSpeed="41.55" duration="140.70" routeLength="4977.08" waitingTime="0.00" waitingCount="0" stopTime="0.00" timeLoss="20.83" rerouteNo="0" devices="tripinfo_LV.5 routing_LV.5 ssm_LV.5" vType="vehLVOS788" speedFactor="1.15" vaporized=""/>
    <tripinfo id="CAVToC.12" depart="22.30" departLane="entry_1" departPos="16.71" departSpeed="31.24" departDelay="0.00" arrival="169.10" arrivalLane="e0_0" arrivalPos="4800.00" arrivalSpeed="34.93" duration="146.80" routeLength="4983.29" waitingTime="0.00" waitingCount="0" stopTime="0.00" timeLoss="4.23" rerouteNo="0" devices="tripinfo_CAVToC.12 routing_CAVToC.12 ssm_CAVToC.12 toc_CAVToC.12 driverstateCAVToC.12" vType="vehLVOS29" speedFactor="0.97" vaporized=""/>
    <tripinfo id="LV.0" depart="10.90" departLane="entry_1" departPos="122.09" departSpeed="30.25" departDelay="0.00" arrival="173.00" arrivalLane="e0_0" arrivalPos="4800.00" arrivalSpeed="30.22" duration="162.10" routeLength="4877.91" waitingTime="0.00" waitingCount="0" stopTime="0.00" timeLoss="0.87" rerouteNo="0" devices="tripinfo_LV.0 routing_LV.0 ssm_LV.0" vType="vehLVOS145" speedFactor="0.84" vaporized=""/>
    <tripinfo id="CVToC.6" depart="17.30" departLane="entry_0" departPos="0.10" departSpeed="26.90" departDelay="0.00" arrival="173.40" arrivalLane="e0_1" arrivalPos="4800.00" arrivalSpeed="35.15" duration="156.10" routeLength="4999.90" waitingTime="0.00" waitingCount="0" stopTime="0.00" timeLoss="13.79" rerouteNo="0" devices="tripinfo_CVToC.6 routing_CVToC.6 ssm_CVToC.6 toc_CVToC.6 driverstateCVToC.6" vType="vehLVOS52" speedFactor="0.97" vaporized=""/>
    <tripinfo id="CAVToC.10" depart="14.60" departLane="entry_0" departPos="0.90" departSpeed="32.31" departDelay="0.50" arrival="174.70" arrivalLane="e0_1" arrivalPos="4800.00" arrivalSpeed="36.90" duration="160.10" routeLength="4999.10" waitingTime="0.00" waitingCount="0" stopTime="0.00" timeLoss="29.31" rerouteNo="0" devices="tripinfo_CAVToC.10 routing_CAVToC.10 ssm_CAVToC.10 toc_CAVToC.10 driverstateCAVToC.10" vType="vehLVOS280" speedFactor="1.06" vaporized=""/>
    <tripinfo id="CAVToC.14" depart="28.00" departLane="entry_1" departPos="52.45" departSpeed="29.74" departDelay="0.40" arrival="184.80" arrivalLane="e0_0" arrivalPos="4800.00" arrivalSpeed="32.38" duration="156.80" routeLength="4947.55" waitingTime="0.00" waitingCount="0" stopTime="0.00" timeLoss="4.31" rerouteNo="0" devices="tripinfo_CAVToC.14 routing_CAVToC.14 ssm_CAVToC.14 toc_CAVToC.14 driverstateCAVToC.14" vType="vehLVOS422" speedFactor="0.90" vaporized=""/>
    <tripinfo id="LV.6" depart="30.20" departLane="entry_1" departPos="6.14" departSpeed="36.01" departDelay="0.80" arrival="185.10" arrivalLane="e0_1" arrivalPos="4800.00" arrivalSpeed="35.90" duration="154.90" routeLength="4993.86" waitingTime="0.00" waitingCount="0" stopTime="0.00" timeLoss="16.15" rerouteNo="0" devices="tripinfo_LV.6 routing_LV.6 ssm_LV.6" vType="vehLVOS339" speedFactor="1.00" vaporized=""/>
    <tripinfo id="CVToC.8" depart="33.10" departLane="entry_1" departPos="8.08" departSpeed="35.66" departDelay="0.50" arrival="186.60" arrivalLane="e0_1" arrivalPos="4800.00" arrivalSpeed="37.19" duration="153.50" routeLength="4991.92" waitingTime="0.00" waitingCount="0" stopTime="0.00" timeLoss="45.28" rerouteNo="0" devices="tripinfo_CVToC.8 routing_CVToC.8 ssm_CVToC.8 toc_CVToC.8 driverstateCVToC.8" vType="vehLVOS738" speedFactor="1.28" vaporized=""/>
    <tripinfo id="CAVToC.17" depart="35.40" departLane="entry_1" departPos="13.23" departSpeed="34.89" departDelay="2.60" arrival="188.30" arrivalLane="e0_1" arrivalPos="4800.00" arrivalSpeed="35.84" duration="152.90" routeLength="4986.77" waitingTime="0.00" waitingCount="0" stopTime="0.00" timeLoss="13.67" rerouteNo="0" devices="tripinfo_CAVToC.17 routing_CAVToC.17 ssm_CAVToC.17 toc_CAVToC.17 driverstateCAVToC.17" vType="vehLVOS298" speedFactor="0.99" vaporized=""/>
    <tripinfo id="LV.2" depart="14.70" departLane="entry_1" departPos="42.72" departSpeed="28.65" departDelay="0.10" arrival="188.70" arrivalLane="e0_0" arrivalPos="4800.00" arrivalSpeed="28.58" duration="174.00" routeLength="4957.28" waitingTime="0.00" waitingCount="0" stopTime="0.00" timeLoss="0.94" rerouteNo="0" devices="tripinfo_LV.2 routing_LV.2 ssm_LV.2" vType="vehLVOS14" speedFactor="0.79" vaporized=""/>
    <tripinfo id="CVToC.9" depart="36.50" departLane="entry_0" departPos="11.70" departSpeed="30.84" departDelay="1.70" arrival="189.70" arrivalLane="e0_1" arrivalPos="4800.00" arrivalSpeed="34.80" duration="153.20" routeLength="4988.30" waitingTime="0.00" waitingCount="0" stopTime="0.00" timeLoss="9.85" rerouteNo="0" devices="tripinfo_CVToC.9 routing_CVToC.9 ssm_CVToC.9 toc_CVToC.9 driverstateCVToC.9" vType="vehLVOS844" speedFactor="0.96" vaporized=""/>
    <tripinfo id="CAVToC.18" depart="33.90" departLane="entry_0" departPos="10.35" departSpeed="31.01" departDelay="0.70" arrival="190.70" arrivalLane="e0_1" arrivalPos="4800.00" arrivalSpeed="35.64" duration="156.80" routeLength="4989.65" waitingTime="0.00" waitingCount="0" stopTime="0.00" timeLoss="33.05" rerouteNo="0" devices="tripinfo_CAVToC.18 routing_CAVToC.18 ssm_CAVToC.18 toc_CAVToC.18 driverstateCAVToC.18" vType="vehLVOS996" speedFactor="1.12" vaporized=""/>
    <tripinfo id="CAVToC.11" depart="20.80" departLane="entry_0" departPos="23.82" departSpeed="26.45" departDelay="1.00" arrival="192.30" arrivalLane="e0_0" arrivalPos="4800.00" arrivalSpeed="30.79" duration="171.50" routeLength="4976.18" waitingTime="0.00" waitingCount="0" stopTime="0.00" timeLoss="13.15" rerouteNo="0" devices="tripinfo_CAVToC.11 routing_CAVToC.11 ssm_CAVToC.11 toc_CAVToC.11 driverstateCAVToC.11" vType="vehLVOS508" speedFactor="0.87" vaporized=""/>
    <tripinfo id="CAVToC.16" depart="32.40" departLane="entry_0" departPos="51.54" departSpeed="30.17" departDelay="0.10" arrival="192.90" arrivalLane="e0_1" arrivalPos="4800.00" arrivalSpeed="34.62" duration="160.50" routeLength="4948.46" waitingTime="0.00" waitingCount="0" stopTime="0.00" timeLoss="17.53" rerouteNo="0" devices="tripinfo_CAVToC.16 routing_CAVToC.16 ssm_CAVToC.16 toc_CAVToC.16 driverstateCAVToC.16" vType="vehLVOS853" speedFactor="0.96" vaporized=""/>
    <tripinfo id="CAVToC.13" depart="24.80" departLane="entry_1" departPos="30.19" departSpeed="29.31" departDelay="1.00" arrival="196.00" arrivalLane="e0_0" arrivalPos="4800.00" arrivalSpeed="29.29" duration="171.20" routeLength="4969.81" waitingTime="0.00" waitingCount="0" stopTime="0.00" timeLoss="1.63" rerouteNo="0" devices="tripinfo_CAVToC.13 routing_CAVToC.13 ssm_CAVToC.13 toc_CAVToC.13 driverstateCAVToC.13" vType="vehLVOS123" speedFactor="0.81" vaporized=""/>
    <tripinfo id="CAVToC.15" depart="28.40" departLane="entry_0" departPos="8.63" departSpeed="31.86" departDelay="0.30" arrival="196.70" arrivalLane="e0_1" arrivalPos="4800.00" arrivalSpeed="31.85" duration="168.30" routeLength="4991.37" waitingTime="0.00" waitingCount="0" stopTime="0.00" timeLoss="11.61" rerouteNo="0" devices="tripinfo_CAVToC.15 routing_CAVToC.15 ssm_CAVToC.15 toc_CAVToC.15 driverstateCAVToC.15" vType="vehLVOS452" speedFactor="0.88" vaporized=""/>
    <tripinfo id="CAVToC.19" depart="37.00" departLane="entry_1" departPos="11.75" departSpeed="28.24" departDelay="0.80" arrival="214.20" arrivalLane="e0_1" arrivalPos="4800.00" arrivalSpeed="28.24" duration="177.20" routeLength="4988.25" waitingTime="0.00" waitingCount="0" stopTime="0.00" timeLoss="0.54" rerouteNo="0" devices="tripinfo_CAVToC.19 routing_CAVToC.19 ssm_CAVToC.19 toc_CAVToC.19 driverstateCAVToC.19" vType="vehLVOS565" speedFactor="0.78" vaporized=""/>
    <tripinfo id="CVToC.10" depart="39.40" departLane="entry_0" departPos="21.34" departSpeed="31.03" departDelay="0.20" arrival="216.00" arrivalLane="e0_0" arrivalPos="4800.00" arrivalSpeed="30.53" duration="176.60" routeLength="4978.66" waitingTime="0.00" waitingCount="0" stopTime="0.00" timeLoss="41.06" rerouteNo="0" devices="tripinfo_CVToC.10 routing_CVToC.10 ssm_CVToC.10 toc_CVToC.10 driverstateCVToC.10" vType="vehLVOS837" speedFactor="1.02" vaporized=""/>
    <tripinfo id="CAVToC.21" depart="41.90" departLane="entry_1" departPos="64.56" departSpeed="29.37" departDelay="1.90" arrival="216.00" arrivalLane="e0_1" arrivalPos="4800.00" arrivalSpeed="31.01" duration="174.10" routeLength="4935.44" waitingTime="0.00" waitingCount="0" stopTime="0.00" timeLoss="44.83" rerouteNo="0" devices="tripinfo_CAVToC.21 routing_CAVToC.21 ssm_CAVToC.21 toc_CAVToC.21 driverstateCAVToC.21" vType="vehLVOS951" speedFactor="1.06" vaporized=""/>
    <tripinfo id="CAVToC.20" depart="41.60" departLane="entry_0" departPos="14.97" departSpeed="27.49" departDelay="2.00" arrival="217.50" arrivalLane="e0_0" arrivalPos="4800.00" arrivalSpeed="32.25" duration="175.90" routeLength="4985.03" waitingTime="0.00" waitingCount="0" stopTime="0.00" timeLoss="22.50" rerouteNo="0" devices="tripinfo_CAVToC.20 routing_CAVToC.20 ssm_CAVToC.20 toc_CAVToC.20 driverstateCAVToC.20" vType="vehLVOS267" speedFactor="0.90" vaporized=""/>
    <tripinfo id="CVToC.11" depart="42.60" departLane="entry_1" departPos="6.33" departSpeed="30.25" departDelay="1.10" arrival="217.70" arrivalLane="e0_1" arrivalPos="4800.00" arrivalSpeed="31.82" duration="175.10" routeLength="4993.67" waitingTime="0.00" waitingCount="0" stopTime="0.00" timeLoss="43.38" rerouteNo="0" devices="tripinfo_CVToC.11 routing_CVToC.11 ssm_CVToC.11 toc_CVToC.11 driverstateCVToC.11" vType="vehLVOS781" speedFactor="1.05" vaporized=""/>
    <tripinfo id="LV.7" depart="47.10" departLane="entry_1" departPos="13.67" departSpeed="41.47" departDelay="4.90" arrival="218.60" arrivalLane="e0_1" arrivalPos="4800.00" arrivalSpeed="32.33" duration="171.50" routeLength="4986.33" waitingTime="0.00" waitingCount="0" stopTime="0.00" timeLoss="51.22" rerouteNo="0" devices="tripinfo_LV.7 routing_LV.7 ssm_LV.7" vType="vehLVOS481" speedFactor="1.15" vaporized=""/>
    <tripinfo id="CVToC.13" depart="48.90" departLane="entry_1" departPos="3.59" departSpeed="36.53" departDelay="2.80" arrival="220.30" arrivalLane="e0_0" arrivalPos="4800.00" arrivalSpeed="34.33" duration="171.40" routeLength="4996.41" waitingTime="0.00" waitingCount="0" stopTime="0.00" timeLoss="44.47" rerouteNo="0" devices="tripinfo_CVToC.13 routing_CVToC.13 ssm_CVToC.13 toc_CVToC.13 driverstateCVToC.13" vType="vehLVOS78" speedFactor="1.09" vaporized=""/>
    <tripinfo id="CVToC.12" depart="47.40" departLane="entry_0" departPos="112.93" departSpeed="28.54" departDelay="2.20" arrival="221.70" arrivalLane="e0_0" arrivalPos="4800.00" arrivalSpeed="28.85" duration="174.30" routeLength="4887.07" waitingTime="0.00" waitingCount="0" stopTime="0.00" timeLoss="4.92" rerouteNo="0" devices="tripinfo_CVToC.12 routing_CVToC.12 ssm_CVToC.12 toc_CVToC.12 driverstateCVToC.12" vType="vehLVOS857" speedFactor="0.80" vaporized=""/>
    <tripinfo id="LV.8" depart="50.00" departLane="entry_1" departPos="36.08" departSpeed="32.88" departDelay="1.90" arrival="222.40" arrivalLane="e0_1" arrivalPos="4800.00" arrivalSpeed="32.86" duration="172.40" routeLength="4963.92" waitingTime="0.00" waitingCount="0" stopTime="0.00" timeLoss="21.36" rerouteNo="0" devices="tripinfo_LV.8 routing_LV.8 ssm_LV.8" vType="vehLVOS256" speedFactor="0.91" vaporized=""/>
    <tripinfo id="CVToC.14" depart="51.40" departLane="entry_1" departPos="12.41" departSpeed="33.01" departDelay="1.90" arrival="223.30" arrivalLane="e0_1" arrivalPos="4800.00" arrivalSpeed="33.80" duration="171.90" routeLength="4987.59" waitingTime="0.00" waitingCount="0" stopTime="0.00" timeLoss="24.39" rerouteNo="0" devices="tripinfo_CVToC.14 routing_CVToC.14 ssm_CVToC.14 toc_CVToC.14 driverstateCVToC.14" vType="vehLVOS966" speedFactor="0.94" vaporized=""/>
    <tripinfo id="CAVToC.22" depart="47.50" departLane="entry_0" departPos="34.48" departSpeed="29.57" departDelay="0.80" arrival="225.00" arrivalLane="e0_0" arrivalPos="4800.00" arrivalSpeed="32.27" duration="177.50" routeLength="4965.52" waitingTime="0.00" waitingCount="0" stopTime="0.00" timeLoss="46.62" rerouteNo="0" devices="tripinfo_CAVToC.22 routing_CAVToC.22 ssm_CAVToC.22 toc_CAVToC.22 driverstateCAVToC.22" vType="vehLVOS699" speedFactor="1.05" vaporized=""/>
    <tripinfo id="CAVToC.24" depart="53.30" departLane="entry_1" departPos="0.09" departSpeed="33.13" departDelay="3.50" arrival="226.10" arrivalLane="e0_1" arrivalPos="4800.00" arrivalSpeed="33.61" duration="172.80" routeLength="4999.91" waitingTime="0.00" waitingCount="0" stopTime="0.00" timeLoss="24.01" rerouteNo="0" devices="tripinfo_CAVToC.24 routing_CAVToC.24 ssm_CAVToC.24 toc_CAVToC.24 driverstateCAVToC.24" vType="vehLVOS122" speedFactor="0.93" vaporized=""/>
    <tripinfo id="CAVToC.23" depart="49.70" departLane="entry_0" departPos="26.50" departSpeed="29.94" departDelay="2.00" arrival="227.00" arrivalLane="e0_0" arrivalPos="4800.00" arrivalSpeed="33.60" duration="177.30" routeLength="4973.50" waitingTime="0.00" waitingCount="0" stopTime="0.00" timeLoss="29.30" rerouteNo="0" devices="tripinfo_CAVToC.23 routing_CAVToC.23 ssm_CAVToC.23 toc_CAVToC.23 driverstateCAVToC.23" vType="vehLVOS252" speedFactor="0.93" vaporized=""/>
    <tripinfo id="CVToC.15" depart="51.70" departLane="entry_0" departPos="0.83" departSpeed="30.52" departDelay="2.10" arrival="227.20" arrivalLane="e0_1" arrivalPos="4800.00" arrivalSpeed="34.65" duration="175.50" routeLength="4999.17" waitingTime="0.00" waitingCount="0" stopTime="0.00" timeLoss="42.66" rerouteNo="0" devices="tripinfo_CVToC.15 routing_CVToC.15 ssm_CVToC.15 toc_CVToC.15 driverstateCVToC.15" vType="vehLVOS217" speedFactor="1.04" vaporized=""/>
    <tripinfo id="CAVToC.26" depart="55.80" departLane="entry_1" departPos="1.05" departSpeed="33.71" departDelay="4.10" arrival="228.70" arrivalLane="e0_1" arrivalPos="4800.00" arrivalSpeed="36.17" duration="172.90" routeLength="4998.95" waitingTime="0.00" waitingCount="0" stopTime="0.00" timeLoss="45.09" rerouteNo="0" devices="tripinfo_CAVToC.26 routing_CAVToC.26 ssm_CAVToC.26 toc_CAVToC.26 driverstateCAVToC.26" vType="vehLVOS114" speedFactor="1.08" vaporized=""/>
    <tripinfo id="CAVToC.27" depart="58.70" departLane="entry_1" departPos="26.02" departSpeed="32.83" departDelay="6.00" arrival="229.80" arrivalLane="e0_1" arrivalPos="4800.00" arrivalSpeed="32.82" duration="171.10" routeLength="4973.98" waitingTime="0.00" waitingCount="0" stopTime="0.00" timeLoss="19.57" rerouteNo="0" devices="tripinfo_CAVToC.27 routing_CAVToC.27 ssm_CAVToC.27 toc_CAVToC.27 driverstateCAVToC.27" vType="vehLVOS181" speedFactor="0.91" vaporized=""/>
    <tripinfo id="CAVToC.25" depart="55.10" departLane="entry_0" departPos="21.23" departSpeed="30.02" departDelay="4.80" arrival="230.10" arrivalLane="e0_0" arrivalPos="4800.00" arrivalSpeed="33.41" duration="175.00" routeLength="4978.77" waitingTime="0.00" waitingCount="0" stopTime="0.00" timeLoss="41.40" rerouteNo="0" devices="tripinfo_CAVToC.25 routing_CAVToC.25 ssm_CAVToC.25 toc_CAVToC.25 driverstateCAVToC.25" vType="vehLVOS489" speedFactor="1.03" vaporized=""/>
    <tripinfo id="CVToC.17" depart="60.80" departLane="entry_1" departPos="26.40" departSpeed="32.99" departDelay="5.80" arrival="232.60" arrivalLane="e0_1" arrivalPos="4800.00" arrivalSpeed="33.34" duration="171.80" routeLength="4973.60" waitingTime="0.00" waitingCount="0" stopTime="0.00" timeLoss="22.63" rerouteNo="0" devices="tripinfo_CVToC.17 routing_CVToC.17 ssm_CVToC.17 toc_CVToC.17 driverstateCVToC.17" vType="vehLVOS716" speedFactor="0.92" vaporized=""/>
    <tripinfo id="CVToC.19" depart="62.70" departLane="entry_1" departPos="20.16" departSpeed="32.74" departDelay="3.20" arrival="233.50" arrivalLane="e0_1" arrivalPos="4800.00" arrivalSpeed="32.67" duration="170.80" routeLength="4979.84" waitingTime="0.00" waitingCount="0" stopTime="0.00" timeLoss="18.68" rerouteNo="0" devices="tripinfo_CVToC.19 routing_CVToC.19 ssm_CVToC.19 toc_CVToC.19 driverstateCVToC.19" vType="vehLVOS846" speedFactor="0.91" vaporized=""/>
    <tripinfo id="CVToC.16" depart="57.60" departLane="entry_0" departPos="17.76" departSpeed="30.11" departDelay="5.80" arrival="233.60" arrivalLane="e0_0" arrivalPos="4800.00" arrivalSpeed="32.92" duration="176.00" routeLength="4982.24" waitingTime="0.00" waitingCount="0" stopTime="0.00" timeLoss="34.83" rerouteNo="0" devices="tripinfo_CVToC.16 routing_CVToC.16 ssm_CVToC.16 toc_CVToC.16 driverstateCVToC.16" vType="vehLVOS265" speedFactor="0.98" vaporized=""/>
    <tripinfo id="CAVToC.30" depart="65.40" departLane="entry_1" departPos="4.20" departSpeed="29.14" departDelay="0.70" arrival="236.20" arrivalLane="e0_1" arrivalPos="4800.00" arrivalSpeed="36.24" duration="170.80" routeLength="4995.80" waitingTime="0.00" waitingCount="0" stopTime="0.00" timeLoss="36.59" rerouteNo="0" devices="tripinfo_CAVToC.30 routing_CAVToC.30 ssm_CAVToC.30 toc_CAVToC.30 driverstateCAVToC.30" vType="vehLVOS28" speedFactor="1.03" vaporized=""/>
    <tripinfo id="CVToC.21" depart="68.60" departLane="entry_1" departPos="18.30" departSpeed="29.93" departDelay="3.70" arrival="237.10" arrivalLane="e0_0" arrivalPos="4800.00" arrivalSpeed="34.77" duration="168.50" routeLength="4981.70" waitingTime="0.00" waitingCount="0" stopTime="0.00" timeLoss="36.18" rerouteNo="0" devices="tripinfo_CVToC.21 routing_CVToC.21 ssm_CVToC.21 toc_CVToC.21 driverstateCVToC.21" vType="vehLVOS5" speedFactor="1.04" vaporized=""/>
    <tripinfo id="CAVToC.29" depart="70.90" departLane="entry_1" departPos="0.12" departSpeed="30.95" departDelay="7.20" arrival="237.70" arrivalLane="e0_1" arrivalPos="4800.00" arrivalSpeed="37.64" duration="166.80" routeLength="4999.88" waitingTime="0.00" waitingCount="0" stopTime="0.00" timeLoss="44.46" rerouteNo="0" devices="tripinfo_CAVToC.29 routing_CAVToC.29 ssm_CAVToC.29 toc_CAVToC.29 driverstateCAVToC.29" vType="vehLVOS440" speedFactor="1.13" vaporized=""/>
    <tripinfo id="CVToC.23" depart="74.00" departLane="entry_1" departPos="14.42" departSpeed="31.43" departDelay="7.60" arrival="239.60" arrivalLane="e0_1" arrivalPos="4800.00" arrivalSpeed="37.11" duration="165.60" routeLength="4985.58" waitingTime="0.00" waitingCount="0" stopTime="0.00" timeLoss="33.42" rerouteNo="0" devices="tripinfo_CVToC.23 routing_CVToC.23 ssm_CVToC.23 toc_CVToC.23 driverstateCVToC.23" vType="vehLVOS918" speedFactor="1.05" vaporized=""/>
    <tripinfo id="LV.11" depart="68.30" departLane="entry_0" departPos="2.92" departSpeed="34.05" departDelay="4.80" arrival="240.70" arrivalLane="e0_0" arrivalPos="4800.00" arrivalSpeed="34.03" duration="172.40" routeLength="4997.08" waitingTime="0.00" waitingCount="0" stopTime="0.00" timeLoss="25.58" rerouteNo="0" devices="tripinfo_LV.11 routing_LV.11 ssm_LV.11" vType="vehLVOS311" speedFactor="0.94" vaporized=""/>
    <tripinfo id="LV.12" depart="71.10" departLane="entry_0" departPos="4.20" departSpeed="37.03" departDelay="6.00" arrival="240.90" arrivalLane="e0_1" arrivalPos="4800.00" arrivalSpeed="37.00" duration="169.80" routeLength="4995.80" waitingTime="0.00" waitingCount="0" stopTime="0.00" timeLoss="34.87" rerouteNo="0" devices="tripinfo_LV.12 routing_LV.12 ssm_LV.12" vType="vehLVOS488" speedFactor="1.03" vaporized=""/>
    <tripinfo id="CAVToC.31" depart="76.30" departLane="entry_1" departPos="1.13" departSpeed="32.15" departDelay="6.20" arrival="242.10" arrivalLane="e0_1" arrivalPos="4800.00" arrivalSpeed="40.14" duration="165.80" routeLength="4998.87" waitingTime="0.00" waitingCount="0" stopTime="0.00" timeLoss="41.48" rerouteNo="0" devices="tripinfo_CAVToC.31 routing_CAVToC.31 ssm_CAVToC.31 toc_CAVToC.31 driverstateCAVToC.31" vType="vehLVOS683" speedFactor="1.11" vaporized=""/>