<?xml version="1.0" encoding="UTF-8"?>

<!-- generated on Wed Jun 24 11:05:47 2020 by Eclipse SUMO Version v1_6_0+0553-a03471b
<configuration xmlns:xsi="http://www.w3.org/2001/XMLSchema-instance" xsi:noNamespaceSchemaLocation="http://sumo.dlr.de/xsd/sumoConfiguration.xsd">

    <input>
        <net-file value="scenario/UC5_1.net.xml"/>
        <route-files value="scenario/routes_trafficMix_0_trafficDemand_1_driverBehaviour_OS_seed_0.xml"/>
        <additional-files value="scenario/additionalsOutput_trafficMix_0_trafficDemand_1_driverBehaviour_OS_seed_0.xml,scenario/vTypesCAVToC_OS.add.xml,scenario/vTypesCVToC_OS.add.xml,scenario/vTypesLV_OS.add.xml,scenario/shapes.add.xml,scenario/view.add.xml"/>
    </input>

    <output>
        <tripinfo-output value="/home/noul_ar/workspace/tor-distribution/outputs/simulations/dnq_dc_seed_30.zip_20200624-101517/tripinfo_6.xml"/>
    </output>

    <time>
        <step-length value="0.1"/>
    </time>

    <processing>
        <step-method.ballistic value="true"/>
        <ignore-route-errors value="true"/>
        <lanechange.duration value="2.5"/>
    </processing>

    <report>
        <no-step-log value="true"/>
    </report>

    <toc_device>
        <device.toc.ogNewTimeHeadway value="100"/>
        <device.toc.ogNewSpaceHeadway value="5"/>
        <device.toc.ogMaxDecel value="1"/>
        <device.toc.ogChangeRate value="1"/>
    </toc_device>

    <traci_server>
        <remote-port value="32997"/>
    </traci_server>

    <random_number>
        <seed value="1030"/>
    </random_number>

    <gui_only>
        <tracker-interval value="0.1"/>
    </gui_only>

</configuration>
-->

<tripinfos xmlns:xsi="http://www.w3.org/2001/XMLSchema-instance" xsi:noNamespaceSchemaLocation="http://sumo.dlr.de/xsd/tripinfo_file.xsd">
    <tripinfo id="CAVToC.1" depart="3.30" departLane="entry_1" departPos="83.45" departSpeed="36.49" departDelay="0.00" arrival="131.90" arrivalLane="e0_1" arrivalPos="4800.00" arrivalSpeed="38.99" duration="128.60" routeLength="4916.55" waitingTime="0.00" waitingCount="0" stopTime="0.00" timeLoss="2.52" rerouteNo="0" devices="tripinfo_CAVToC.1 routing_CAVToC.1 ssm_CAVToC.1 toc_CAVToC.1 driverstateCAVToC.1" vType="vehLVOS524" speedFactor="1.08" vaporized=""/>
    <tripinfo id="LV.1" depart="6.70" departLane="entry_1" departPos="134.40" departSpeed="39.39" departDelay="0.00" arrival="133.80" arrivalLane="e0_1" arrivalPos="4800.00" arrivalSpeed="39.36" duration="127.10" routeLength="4865.60" waitingTime="0.00" waitingCount="0" stopTime="0.00" timeLoss="3.51" rerouteNo="0" devices="tripinfo_LV.1 routing_LV.1 ssm_LV.1" vType="vehLVOS289" speedFactor="1.09" vaporized=""/>
    <tripinfo id="LV.0" depart="2.10" departLane="entry_1" departPos="125.88" departSpeed="36.69" departDelay="0.00" arrival="135.20" arrivalLane="e0_0" arrivalPos="4800.00" arrivalSpeed="36.69" duration="133.10" routeLength="4874.12" waitingTime="0.00" waitingCount="0" stopTime="0.00" timeLoss="0.21" rerouteNo="0" devices="tripinfo_LV.0 routing_LV.0 ssm_LV.0" vType="vehLVOS158" speedFactor="1.02" vaporized=""/>
    <tripinfo id="CAVToC.2" depart="6.70" departLane="entry_1" departPos="42.54" departSpeed="37.15" departDelay="0.00" arrival="135.50" arrivalLane="e0_1" arrivalPos="4800.00" arrivalSpeed="41.19" duration="128.80" routeLength="4957.46" waitingTime="0.00" waitingCount="0" stopTime="0.00" timeLoss="16.40" rerouteNo="0" devices="tripinfo_CAVToC.2 routing_CAVToC.2 ssm_CAVToC.2 toc_CAVToC.2 driverstateCAVToC.2" vType="vehLVOS54" speedFactor="1.22" vaporized=""/>
    <tripinfo id="CVToC.1" depart="10.00" departLane="entry_1" departPos="2.87" departSpeed="36.49" departDelay="0.00" arrival="141.70" arrivalLane="e0_1" arrivalPos="4800.00" arrivalSpeed="39.01" duration="131.70" routeLength="4997.13" waitingTime="0.00" waitingCount="0" stopTime="0.00" timeLoss="3.63" rerouteNo="0" devices="tripinfo_CVToC.1 routing_CVToC.1 ssm_CVToC.1 toc_CVToC.1 driverstateCVToC.1" vType="vehLVOS216" speedFactor="1.08" vaporized=""/>
    <tripinfo id="CAVToC.3" depart="6.90" departLane="entry_0" departPos="199.90" departSpeed="36.96" departDelay="0.00" arrival="143.30" arrivalLane="e0_1" arrivalPos="4800.00" arrivalSpeed="41.64" duration="136.40" routeLength="4800.10" waitingTime="0.00" waitingCount="0" stopTime="0.00" timeLoss="23.92" rerouteNo="0" devices="tripinfo_CAVToC.3 routing_CAVToC.3 ssm_CAVToC.3 toc_CAVToC.3 driverstateCAVToC.3" vType="vehLVOS235" speedFactor="1.18" vaporized=""/>
    <tripinfo id="CVToC.0" depart="8.60" departLane="entry_1" departPos="34.16" departSpeed="36.34" departDelay="0.00" arrival="143.50" arrivalLane="e0_0" arrivalPos="4800.00" arrivalSpeed="37.10" duration="134.90" routeLength="4965.84" waitingTime="0.00" waitingCount="0" stopTime="0.00" timeLoss="1.17" rerouteNo="0" devices="tripinfo_CVToC.0 routing_CVToC.0 ssm_CVToC.0 toc_CVToC.0 driverstateCVToC.0" vType="vehLVOS918" speedFactor="1.03" vaporized=""/>
    <tripinfo id="CAVToC.5" depart="14.40" departLane="entry_1" departPos="1.18" departSpeed="34.40" departDelay="0.00" arrival="152.40" arrivalLane="e0_0" arrivalPos="4800.00" arrivalSpeed="37.35" duration="138.00" routeLength="4998.82" waitingTime="0.00" waitingCount="0" stopTime="0.00" timeLoss="4.15" rerouteNo="0" devices="tripinfo_CAVToC.5 routing_CAVToC.5 ssm_CAVToC.5 toc_CAVToC.5 driverstateCAVToC.5" vType="vehLVOS71" speedFactor="1.03" vaporized=""/>
    <tripinfo id="CAVToC.6" depart="16.00" departLane="entry_0" departPos="133.27" departSpeed="27.72" departDelay="0.10" arrival="155.70" arrivalLane="e0_1" arrivalPos="4800.00" arrivalSpeed="37.95" duration="139.70" routeLength="4866.73" waitingTime="0.00" waitingCount="0" stopTime="0.00" timeLoss="11.43" rerouteNo="0" devices="tripinfo_CAVToC.6 routing_CAVToC.6 ssm_CAVToC.6 toc_CAVToC.6 driverstateCAVToC.6" vType="vehLVOS222" speedFactor="1.05" vaporized=""/>
    <tripinfo id="CAVToC.0" depart="0.50" departLane="entry_1" departPos="199.90" departSpeed="30.92" departDelay="0.00" arrival="156.10" arrivalLane="e0_0" arrivalPos="4800.00" arrivalSpeed="30.88" duration="155.60" routeLength="4800.10" waitingTime="0.00" waitingCount="0" stopTime="0.00" timeLoss="0.32" rerouteNo="0" devices="tripinfo_CAVToC.0 routing_CAVToC.0 ssm_CAVToC.0 toc_CAVToC.0 driverstateCAVToC.0" vType="vehLVOS616" speedFactor="0.86" vaporized=""/>
    <tripinfo id="CVToC.5" depart="19.50" departLane="entry_0" departPos="6.42" departSpeed="30.42" departDelay="0.00" arrival="156.70" arrivalLane="e0_1" arrivalPos="4800.00" arrivalSpeed="38.20" duration="137.20" routeLength="4993.58" waitingTime="0.00" waitingCount="0" stopTime="0.00" timeLoss="6.41" rerouteNo="0" devices="tripinfo_CVToC.5 routing_CVToC.5 ssm_CVToC.5 toc_CVToC.5 driverstateCVToC.5" vType="vehLVOS515" speedFactor="1.06" vaporized=""/>
    <tripinfo id="CAVToC.4" depart="7.40" departLane="entry_0" departPos="138.03" departSpeed="36.14" departDelay="0.00" arrival="156.90" arrivalLane="e0_0" arrivalPos="4800.00" arrivalSpeed="32.69" duration="149.50" routeLength="4861.97" waitingTime="0.00" waitingCount="0" stopTime="0.00" timeLoss="17.49" rerouteNo="0" devices="tripinfo_CAVToC.4 routing_CAVToC.4 ssm_CAVToC.4 toc_CAVToC.4 driverstateCAVToC.4" vType="vehLVOS268" speedFactor="1.02" vaporized=""/>
    <tripinfo id="CVToC.3" depart="12.20" departLane="entry_1" departPos="8.52" departSpeed="33.94" departDelay="0.00" arrival="159.30" arrivalLane="e0_0" arrivalPos="4800.00" arrivalSpeed="33.94" duration="147.10" routeLength="4991.48" waitingTime="0.00" waitingCount="0" stopTime="0.00" timeLoss="0.03" rerouteNo="0" devices="tripinfo_CVToC.3 routing_CVToC.3 ssm_CVToC.3 toc_CVToC.3 driverstateCVToC.3" vType="vehLVOS578" speedFactor="0.94" vaporized=""/>
    <tripinfo id="CAVToC.9" depart="26.70" departLane="entry_1" departPos="60.13" departSpeed="31.66" departDelay="0.10" arrival="164.50" arrivalLane="e0_0" arrivalPos="4800.00" arrivalSpeed="38.31" duration="137.80" routeLength="4939.87" waitingTime="0.00" waitingCount="0" stopTime="0.00" timeLoss="9.30" rerouteNo="0" devices="tripinfo_CAVToC.9 routing_CAVToC.9 ssm_CAVToC.9 toc_CAVToC.9 driverstateCAVToC.9" vType="vehLVOS606" speedFactor="1.06" vaporized=""/>
    <tripinfo id="LV.2" depart="27.70" departLane="entry_0" departPos="1.56" departSpeed="43.85" departDelay="4.60" arrival="166.20" arrivalLane="e0_1" arrivalPos="4800.00" arrivalSpeed="43.75" duration="138.50" routeLength="4998.44" waitingTime="0.00" waitingCount="0" stopTime="0.00" timeLoss="24.47" rerouteNo="0" devices="tripinfo_LV.2 routing_LV.2 ssm_LV.2" vType="vehLVOS332" speedFactor="1.21" vaporized=""/>
    <tripinfo id="CVToC.7" depart="24.30" departLane="entry_1" departPos="75.27" departSpeed="29.33" departDelay="0.00" arrival="169.00" arrivalLane="e0_0" arrivalPos="4800.00" arrivalSpeed="34.64" duration="144.70" routeLength="4924.73" waitingTime="0.00" waitingCount="0" stopTime="0.00" timeLoss="3.00" rerouteNo="0" devices="tripinfo_CVToC.7 routing_CVToC.7 ssm_CVToC.7 toc_CVToC.7 driverstateCVToC.7" vType="vehLVOS545" speedFactor="0.96" vaporized=""/>
    <tripinfo id="CVToC.8" depart="28.50" departLane="entry_1" departPos="38.98" departSpeed="32.90" departDelay="0.10" arrival="171.50" arrivalLane="e0_0" arrivalPos="4800.00" arrivalSpeed="35.60" duration="143.00" routeLength="4961.02" waitingTime="0.00" waitingCount="0" stopTime="0.00" timeLoss="3.76" rerouteNo="0" devices="tripinfo_CVToC.8 routing_CVToC.8 ssm_CVToC.8 toc_CVToC.8 driverstateCVToC.8" vType="vehLVOS345" speedFactor="0.99" vaporized=""/>
    <tripinfo id="CVToC.4" depart="15.30" departLane="entry_0" departPos="199.90" departSpeed="26.03" departDelay="0.20" arrival="172.10" arrivalLane="e0_1" arrivalPos="4800.00" arrivalSpeed="40.15" duration="156.80" routeLength="4800.10" waitingTime="0.00" waitingCount="0" stopTime="0.00" timeLoss="37.18" rerouteNo="0" devices="tripinfo_CVToC.4 routing_CVToC.4 ssm_CVToC.4 toc_CVToC.4 driverstateCVToC.4" vType="vehLVOS926" speedFactor="1.11" vaporized=""/>
    <tripinfo id="CAVToC.10" depart="33.30" departLane="entry_1" departPos="125.18" departSpeed="35.32" departDelay="0.20" arrival="174.10" arrivalLane="e0_0" arrivalPos="4800.00" arrivalSpeed="37.13" duration="140.80" routeLength="4874.82" waitingTime="0.00" waitingCount="0" stopTime="0.00" timeLoss="9.62" rerouteNo="0" devices="tripinfo_CAVToC.10 routing_CAVToC.10 ssm_CAVToC.10 toc_CAVToC.10 driverstateCAVToC.10" vType="vehLVOS284" speedFactor="1.03" vaporized=""/>
    <tripinfo id="CAVToC.7" depart="16.70" departLane="entry_0" departPos="76.30" departSpeed="28.61" departDelay="0.00" arrival="187.00" arrivalLane="e0_0" arrivalPos="4800.00" arrivalSpeed="33.67" duration="170.30" routeLength="4923.70" waitingTime="0.00" waitingCount="0" stopTime="0.00" timeLoss="24.48" rerouteNo="0" devices="tripinfo_CAVToC.7 routing_CAVToC.7 ssm_CAVToC.7 toc_CAVToC.7 driverstateCAVToC.7" vType="vehLVOS499" speedFactor="0.94" vaporized=""/>
    <tripinfo id="LV.3" depart="31.80" departLane="entry_0" departPos="17.25" departSpeed="36.81" departDelay="0.00" arrival="189.10" arrivalLane="e0_1" arrivalPos="4800.00" arrivalSpeed="36.75" duration="157.30" routeLength="4982.75" waitingTime="0.00" waitingCount="0" stopTime="0.00" timeLoss="21.86" rerouteNo="0" devices="tripinfo_LV.3 routing_LV.3 ssm_LV.3" vType="vehLVOS542" speedFactor="1.02" vaporized=""/>
    <tripinfo id="CAVToC.11" depart="36.80" departLane="entry_1" departPos="170.48" departSpeed="32.93" departDelay="0.20" arrival="189.60" arrivalLane="e0_0" arrivalPos="4800.00" arrivalSpeed="34.40" duration="152.80" routeLength="4829.52" waitingTime="0.00" waitingCount="0" stopTime="0.00" timeLoss="12.94" rerouteNo="0" devices="tripinfo_CAVToC.11 routing_CAVToC.11 ssm_CAVToC.11 toc_CAVToC.11 driverstateCAVToC.11" vType="vehLVOS980" speedFactor="0.96" vaporized=""/>
    <tripinfo id="CAVToC.14" depart="38.70" departLane="entry_0" departPos="27.27" departSpeed="32.63" departDelay="0.00" arrival="191.20" arrivalLane="e0_1" arrivalPos="4800.00" arrivalSpeed="36.91" duration="152.50" routeLength="4972.73" waitingTime="0.00" waitingCount="0" stopTime="0.00" timeLoss="18.04" rerouteNo="0" devices="tripinfo_CAVToC.14 routing_CAVToC.14 ssm_CAVToC.14 toc_CAVToC.14 driverstateCAVToC.14" vType="vehLVOS588" speedFactor="1.02" vaporized=""/>
    <tripinfo id="CAVToC.16" depart="40.50" departLane="entry_1" departPos="0.82" departSpeed="32.96" departDelay="0.30" arrival="194.00" arrivalLane="e0_1" arrivalPos="4800.00" arrivalSpeed="38.65" duration="153.50" routeLength="4999.18" waitingTime="0.00" waitingCount="0" stopTime="0.00" timeLoss="24.40" rerouteNo="0" devices="tripinfo_CAVToC.16 routing_CAVToC.16 ssm_CAVToC.16 toc_CAVToC.16 driverstateCAVToC.16" vType="vehLVOS678" speedFactor="1.07" vaporized=""/>
    <tripinfo id="CAVToC.17" depart="42.90" departLane="entry_1" departPos="1.60" departSpeed="33.25" departDelay="2.00" arrival="194.90" arrivalLane="e0_0" arrivalPos="4800.00" arrivalSpeed="37.82" duration="152.00" routeLength="4998.40" waitingTime="0.00" waitingCount="0" stopTime="0.00" timeLoss="19.83" rerouteNo="0" devices="tripinfo_CAVToC.17 routing_CAVToC.17 ssm_CAVToC.17 toc_CAVToC.17 driverstateCAVToC.17" vType="vehLVOS293" speedFactor="1.05" vaporized=""/>
    <tripinfo id="LV.5" depart="46.20" departLane="entry_1" departPos="5.80" departSpeed="41.00" departDelay="1.70" arrival="195.70" arrivalLane="e0_1" arrivalPos="4800.00" arrivalSpeed="40.96" duration="149.50" routeLength="4994.20" waitingTime="0.00" waitingCount="0" stopTime="0.00" timeLoss="27.66" rerouteNo="0" devices="tripinfo_LV.5 routing_LV.5 ssm_LV.5" vType="vehLVOS601" speedFactor="1.14" vaporized=""/>
    <tripinfo id="CAVToC.13" depart="38.70" departLane="entry_0" departPos="105.33" departSpeed="32.04" departDelay="0.10" arrival="203.60" arrivalLane="e0_0" arrivalPos="4800.00" arrivalSpeed="34.33" duration="164.90" routeLength="4894.67" waitingTime="0.00" waitingCount="0" stopTime="0.00" timeLoss="22.64" rerouteNo="0" devices="tripinfo_CAVToC.13 routing_CAVToC.13 ssm_CAVToC.13 toc_CAVToC.13 driverstateCAVToC.13" vType="vehLVOS716" speedFactor="0.95" vaporized=""/>
    <tripinfo id="CVToC.2" depart="11.30" departLane="entry_0" departPos="199.90" departSpeed="23.98" departDelay="0.00" arrival="211.70" arrivalLane="e0_0" arrivalPos="4800.00" arrivalSpeed="23.93" duration="200.40" routeLength="4800.10" waitingTime="0.00" waitingCount="0" stopTime="0.00" timeLoss="0.23" rerouteNo="0" devices="tripinfo_CVToC.2 routing_CVToC.2 ssm_CVToC.2 toc_CVToC.2 driverstateCVToC.2" vType="vehLVOS596" speedFactor="0.66" vaporized=""/>
    <tripinfo id="CAVToC.21" depart="50.10" departLane="entry_1" departPos="13.44" departSpeed="30.91" departDelay="1.20" arrival="213.10" arrivalLane="e0_1" arrivalPos="4800.00" arrivalSpeed="30.79" duration="163.00" routeLength="4986.56" waitingTime="0.00" waitingCount="0" stopTime="0.00" timeLoss="1.63" rerouteNo="0" devices="tripinfo_CAVToC.21 routing_CAVToC.21 ssm_CAVToC.21 toc_CAVToC.21 driverstateCAVToC.21" vType="vehLVOS150" speedFactor="0.86" vaporized=""/>
    <tripinfo id="CAVToC.8" depart="17.80" departLane="entry_0" departPos="40.24" departSpeed="29.18" departDelay="0.00" arrival="213.20" arrivalLane="e0_0" arrivalPos="4800.00" arrivalSpeed="27.21" duration="195.40" routeLength="4959.76" waitingTime="0.00" waitingCount="0" stopTime="0.00" timeLoss="38.85" rerouteNo="0" devices="tripinfo_CAVToC.8 routing_CAVToC.8 ssm_CAVToC.8 toc_CAVToC.8 driverstateCAVToC.8" vType="vehLVOS589" speedFactor="0.88" vaporized=""/>
    <tripinfo id="CAVToC.22" depart="52.80" departLane="entry_1" departPos="14.58" departSpeed="31.69" departDelay="3.70" arrival="214.00" arrivalLane="e0_1" arrivalPos="4800.00" arrivalSpeed="33.11" duration="161.20" routeLength="4985.42" waitingTime="0.00" waitingCount="0" stopTime="0.00" timeLoss="28.27" rerouteNo="0" devices="tripinfo_CAVToC.22 routing_CAVToC.22 ssm_CAVToC.22 toc_CAVToC.22 driverstateCAVToC.22" vType="vehLVOS201" speedFactor="1.04" vaporized=""/>
    <tripinfo id="CVToC.6" depart="24.40" departLane="entry_0" departPos="149.90" departSpeed="27.87" departDelay="0.30" arrival="214.90" arrivalLane="e0_0" arrivalPos="4800.00" arrivalSpeed="26.69" duration="190.50" routeLength="4850.10" waitingTime="0.00" waitingCount="0" stopTime="0.00" timeLoss="60.35" rerouteNo="0" devices="tripinfo_CVToC.6 routing_CVToC.6 ssm_CVToC.6 toc_CVToC.6 driverstateCVToC.6" vType="vehLVOS915" speedFactor="1.03" vaporized=""/>
    <tripinfo id="CAVToC.24" depart="55.00" departLane="entry_1" departPos="4.39" departSpeed="32.07" departDelay="3.40" arrival="215.90" arrivalLane="e0_1" arrivalPos="4800.00" arrivalSpeed="33.34" duration="160.90" routeLength="4995.61" waitingTime="0.00" waitingCount="0" stopTime="0.00" timeLoss="20.03" rerouteNo="0" devices="tripinfo_CAVToC.24 routing_CAVToC.24 ssm_CAVToC.24 toc_CAVToC.24 driverstateCAVToC.24" vType="vehLVOS321" speedFactor="0.98" vaporized=""/>
    <tripinfo id="LV.7" depart="58.80" departLane="entry_1" departPos="0.49" departSpeed="41.71" departDelay="4.30" arrival="217.10" arrivalLane="e0_1" arrivalPos="4800.00" arrivalSpeed="33.94" duration="158.30" routeLength="4999.51" waitingTime="0.00" waitingCount="0" stopTime="0.00" timeLoss="38.40" rerouteNo="0" devices="tripinfo_LV.7 routing_LV.7 ssm_LV.7" vType="vehLVOS237" speedFactor="1.16" vaporized=""/>
    <tripinfo id="CVToC.9" depart="29.70" departLane="entry_0" departPos="12.02" departSpeed="34.92" departDelay="0.00" arrival="217.30" arrivalLane="e0_0" arrivalPos="4800.00" arrivalSpeed="27.92" duration="187.60" routeLength="4987.98" waitingTime="0.00" waitingCount="0" stopTime="0.00" timeLoss="44.71" rerouteNo="0" devices="tripinfo_CVToC.9 routing_CVToC.9 ssm_CVToC.9 toc_CVToC.9 driverstateCVToC.9" vType="vehLVOS18" speedFactor="0.97" vaporized=""/>
    <tripinfo id="CAVToC.12" depart="37.60" departLane="entry_0" departPos="142.22" departSpeed="33.75" departDelay="0.20" arrival="218.40" arrivalLane="e0_0" arrivalPos="4800.00" arrivalSpeed="29.27" duration="180.80" routeLength="4857.78" waitingTime="0.00" waitingCount="0" stopTime="0.00" timeLoss="51.23" rerouteNo="0" devices="tripinfo_CAVToC.12 routing_CAVToC.12 ssm_CAVToC.12 toc_CAVToC.12 driverstateCAVToC.12" vType="vehLVOS432" speedFactor="1.04" vaporized=""/>
    <tripinfo id="CVToC.10" depart="48.10" departLane="entry_1" departPos="19.84" departSpeed="31.28" departDelay="0.00" arrival="220.90" arrivalLane="e0_0" arrivalPos="4800.00" arrivalSpeed="31.27" duration="172.80" routeLength="4980.16" waitingTime="0.00" waitingCount="0" stopTime="0.00" timeLoss="13.56" rerouteNo="0" devices="tripinfo_CVToC.10 routing_CVToC.10 ssm_CVToC.10 toc_CVToC.10 driverstateCVToC.10" vType="vehLVOS532" speedFactor="0.87" vaporized=""/>
    <tripinfo id="CVToC.16" depart="61.00" departLane="entry_1" departPos="17.02" departSpeed="35.27" departDelay="0.40" arrival="221.80" arrivalLane="e0_1" arrivalPos="4800.00" arrivalSpeed="35.26" duration="160.80" routeLength="4982.98" waitingTime="0.00" waitingCount="0" stopTime="0.00" timeLoss="19.52" rerouteNo="0" devices="tripinfo_CVToC.16 routing_CVToC.16 ssm_CVToC.16 toc_CVToC.16 driverstateCVToC.16" vType="vehLVOS472" speedFactor="0.98" vaporized=""/>
    <tripinfo id="CAVToC.15" depart="39.80" departLane="entry_0" departPos="2.81" departSpeed="27.51" departDelay="0.40" arrival="222.60" arrivalLane="e0_0" arrivalPos="4800.00" arrivalSpeed="27.51" duration="182.80" routeLength="4997.19" waitingTime="0.00" waitingCount="0" stopTime="0.00" timeLoss="1.06" rerouteNo="0" devices="tripinfo_CAVToC.15 routing_CAVToC.15 ssm_CAVToC.15 toc_CAVToC.15 driverstateCAVToC.15" vType="vehLVOS610" speedFactor="0.76" vaporized=""/>
    <tripinfo id="CAVToC.23" depart="51.80" departLane="entry_0" departPos="23.38" departSpeed="30.55" departDelay="2.50" arrival="223.00" arrivalLane="e0_1" arrivalPos="4800.00" arrivalSpeed="36.88" duration="171.20" routeLength="4976.62" waitingTime="0.00" waitingCount="0" stopTime="0.00" timeLoss="36.23" rerouteNo="0" devices="tripinfo_CAVToC.23 routing_CAVToC.23 ssm_CAVToC.23 toc_CAVToC.23 driverstateCAVToC.23" vType="vehLVOS568" speedFactor="1.02" vaporized=""/>
    <tripinfo id="CAVToC.18" depart="43.00" departLane="entry_0" departPos="9.46" departSpeed="28.65" departDelay="1.00" arrival="223.90" arrivalLane="e0_0" arrivalPos="4800.00" arrivalSpeed="28.83" duration="180.90" routeLength="4990.54" waitingTime="0.00" waitingCount="0" stopTime="0.00" timeLoss="49.52" rerouteNo="0" devices="tripinfo_CAVToC.18 routing_CAVToC.18 ssm_CAVToC.18 toc_CAVToC.18 driverstateCAVToC.18" vType="vehLVOS375" speedFactor="1.05" vaporized=""/>
    <tripinfo id="CVToC.12" depart="63.10" departLane="entry_1" departPos="20.48" departSpeed="34.57" departDelay="6.80" arrival="224.90" arrivalLane="e0_1" arrivalPos="4800.00" arrivalSpeed="34.56" duration="161.80" routeLength="4979.52" waitingTime="0.00" waitingCount="0" stopTime="0.00" timeLoss="17.68" rerouteNo="0" devices="tripinfo_CVToC.12 routing_CVToC.12 ssm_CVToC.12 toc_CVToC.12 driverstateCVToC.12" vType="vehLVOS18" speedFactor="0.96" vaporized=""/>
    <tripinfo id="CAVToC.19" depart="45.80" departLane="entry_0" departPos="2.93" departSpeed="29.64" departDelay="1.40" arrival="225.50" arrivalLane="e0_0" arrivalPos="4800.00" arrivalSpeed="30.63" duration="179.70" routeLength="4997.07" waitingTime="0.00" waitingCount="0" stopTime="0.00" timeLoss="50.92" rerouteNo="0" devices="tripinfo_CAVToC.19 routing_CAVToC.19 ssm_CAVToC.19 toc_CAVToC.19 driverstateCAVToC.19" vType="vehLVOS642" speedFactor="1.07" vaporized=""/>
    <tripinfo id="CVToC.15" depart="65.00" departLane="entry_1" departPos="12.32" departSpeed="34.83" departDelay="5.30" arrival="226.40" arrivalLane="e0_1" arrivalPos="4800.00" arrivalSpeed="36.22" duration="161.40" routeLength="4987.68" waitingTime="0.00" waitingCount="0" stopTime="0.00" timeLoss="23.62" rerouteNo="0" devices="tripinfo_CVToC.15 routing_CVToC.15 ssm_CVToC.15 toc_CVToC.15 driverstateCVToC.15" vType="vehLVOS424" speedFactor="1.00" vaporized=""/>
    <tripinfo id="CAVToC.20" depart="49.60" departLane="entry_0" departPos="40.49" departSpeed="29.91" departDelay="1.40" arrival="227.10" arrivalLane="e0_0" arrivalPos="4800.00" arrivalSpeed="32.12" duration="177.50" routeLength="4959.51" waitingTime="0.00" waitingCount="0" stopTime="0.00" timeLoss="32.70" rerouteNo="0" devices="tripinfo_CAVToC.20 routing_CAVToC.20 ssm_CAVToC.20 toc_CAVToC.20 driverstateCAVToC.20" vType="vehLVOS460" speedFactor="0.95" vaporized=""/>
    <tripinfo id="CVToC.18" depart="67.70" departLane="entry_1" departPos="12.51" departSpeed="35.87" departDelay="5.10" arrival="227.90" arrivalLane="e0_1" arrivalPos="4800.00" arrivalSpeed="37.37" duration="160.20" routeLength="4987.49" waitingTime="0.00" waitingCount="0" stopTime="0.00" timeLoss="50.14" rerouteNo="0" devices="tripinfo_CVToC.18 routing_CVToC.18 ssm_CVToC.18 toc_CVToC.18 driverstateCVToC.18" vType="vehLVOS73" speedFactor="1.26" vaporized=""/>
    <tripinfo id="LV.8" depart="56.40" departLane="entry_0" departPos="50.12" departSpeed="30.38" departDelay="1.10" arrival="228.70" arrivalLane="e0_0" arrivalPos="4800.00" arrivalSpeed="30.31" duration="172.30" routeLength="4949.88" waitingTime="0.00" waitingCount="0" stopTime="0.00" timeLoss="9.32" rerouteNo="0" devices="tripinfo_LV.8 routing_LV.8 ssm_LV.8" vType="vehLVOS194" speedFactor="0.84" vaporized=""/>
    <tripinfo id="LV.6" depart="70.90" departLane="entry_1" departPos="1.01" departSpeed="40.61" departDelay="25.20" arrival="230.00" arrivalLane="e0_1" arrivalPos="4800.00" arrivalSpeed="38.48" duration="159.10" routeLength="4998.99" waitingTime="0.00" waitingCount="0" stopTime="0.00" timeLoss="36.00" rerouteNo="0" devices="tripinfo_LV.6 routing_LV.6 ssm_LV.6" vType="vehLVOS583" speedFactor="1.12" vaporized=""/>
    <tripinfo id="CAVToC.25" depart="53.40" departLane="entry_0" departPos="1.62" departSpeed="30.59" departDelay="1.30" arrival="230.30" arrivalLane="e0_0" arrivalPos="4800.00" arrivalSpeed="31.42" duration="176.90" routeLength="4998.38" waitingTime="0.00" waitingCount="0" stopTime="0.00" timeLoss="17.83" rerouteNo="0" devices="tripinfo_CAVToC.25 routing_CAVToC.25 ssm_CAVToC.25 toc_CAVToC.25 driverstateCAVToC.25" vType="vehLVOS267" speedFactor="0.87" vaporized=""/>
    <tripinfo id="LV.11" depart="71.90" departLane="entry_1" departPos="33.80" departSpeed="36.80" departDelay="2.50" arrival="231.00" arrivalLane="e0_1" arrivalPos="4800.00" arrivalSpeed="36.75" duration="159.10" routeLength="4966.20" waitingTime="0.00" waitingCount="0" stopTime="0.00" timeLoss="24.13" rerouteNo="0" devices="tripinfo_LV.11 routing_LV.11 ssm_LV.11" vType="vehLVOS321" speedFactor="1.02" vaporized=""/>
    <tripinfo id="CVToC.11" depart="57.50" departLane="entry_0" departPos="3.54" departSpeed="30.50" departDelay="1.40" arrival="232.30" arrivalLane="e0_0" arrivalPos="4800.00" arrivalSpeed="35.25" duration="174.80" routeLength="4996.46" waitingTime="0.00" waitingCount="0" stopTime="0.00" timeLoss="32.99" rerouteNo="0" devices="tripinfo_CVToC.11 routing_CVToC.11 ssm_CVToC.11 toc_CVToC.11 driverstateCVToC.11" vType="vehLVOS568" speedFactor="0.98" vaporized=""/>
    <tripinfo id="LV.12" depart="73.30" departLane="entry_1" departPos="52.34" departSpeed="34.58" departDelay="3.10" arrival="232.70" arrivalLane="e0_1" arrivalPos="4800.00" arrivalSpeed="34.56" duration="159.40" routeLength="4947.66" waitingTime="0.00" waitingCount="0" stopTime="0.00" timeLoss="16.33" rerouteNo="0" devices="tripinfo_LV.12 routing_LV.12 ssm_LV.12" vType="vehLVOS25" speedFactor="0.96" vaporized=""/>
    <tripinfo id="CVToC.13" depart="60.40" departLane="entry_0" departPos="11.61" departSpeed="30.64" departDelay="1.50" arrival="234.90" arrivalLane="e0_0" arrivalPos="4800.00" arrivalSpeed="37.36" duration="174.50" routeLength="4988.39" waitingTime="0.00" waitingCount="0" stopTime="0.00" timeLoss="41.25" rerouteNo="0" devices="tripinfo_CVToC.13 routing_CVToC.13 ssm_CVToC.13 toc_CVToC.13 driverstateCVToC.13" vType="vehLVOS243" speedFactor="1.04" vaporized=""/>
    <tripinfo id="CVToC.19" depart="74.10" departLane="entry_1" departPos="3.29" departSpeed="34.67" departDelay="4.30" arrival="236.20" arrivalLane="e0_1" arrivalPos="4800.00" arrivalSpeed="35.37" duration="162.10" routeLength="4996.71" waitingTime="0.00" waitingCount="0" stopTime="0.00" timeLoss="21.24" rerouteNo="0" devices="tripinfo_CVToC.19 routing_CVToC.19 ssm_CVToC.19 toc_CVToC.19 driverstateCVToC.19" vType="vehLVOS466" speedFactor="0.98" vaporized=""/>
    <tripinfo id="CAVToC.30" depart="76.60" departLane="entry_1" departPos="15.72" departSpeed="34.82" departDelay="1.90" arrival="237.00" arrivalLane="e0_1" arrivalPos="4800.00" arrivalSpeed="35.29" duration="160.40" routeLength="4984.28" waitingTime="0.00" waitingCount="0" stopTime="0.00" timeLoss="19.35" rerouteNo="0" devices="tripinfo_CAVToC.30 routing_CAVToC.30 ssm_CAVToC.30 toc_CAVToC.30 driverstateCAVToC.30" vType="vehLVOS652" speedFactor="0.98" vaporized=""/>
    <tripinfo id="CAVToC.26" depart="62.80" departLane="entry_0" departPos="14.86" departSpeed="30.45" departDelay="3.90" arrival="237.70" arrivalLane="e0_0" arrivalPos="4800.00" arrivalSpeed="31.93" duration="174.90" routeLength="4985.14" waitingTime="0.00" waitingCount="0" stopTime="0.00" timeLoss="18.96" rerouteNo="0" devices="tripinfo_CAVToC.26 routing_CAVToC.26 ssm_CAVToC.26 toc_CAVToC.26 driverstateCAVToC.26" vType="vehLVOS533" speedFactor="0.89" vaporized=""/>
    <tripinfo id="LV.10" depart="80.30" departLane="entry_1" departPos="12.40" departSpeed="41.61" departDelay="14.70" arrival="238.40" arrivalLane="e0_1" arrivalPos="4800.00" arrivalSpeed="37.16" duration="158.10" routeLength="4987.60" waitingTime="0.00" waitingCount="0" stopTime="0.00" timeLoss="38.24" rerouteNo="0" devices="tripinfo_LV.10 routing_LV.10 ssm_LV.10" vType="vehLVOS328" speedFactor="1.15" vaporized=""/>
    <tripinfo id="CVToC.21" depart="82.20" departLane="entry_1" departPos="18.81" departSpeed="34.11" departDelay="6.50" arrival="239.50" arrivalLane="e0_1" arrivalPos="4800.00" arrivalSpeed="34.11" duration="157.30" routeLength="4981.19" waitingTime="0.00" waitingCount="0" stopTime="0.00" timeLoss="11.22" rerouteNo="0" devices="tripinfo_CVToC.21 routing_CVToC.21 ssm_CVToC.21 toc_CVToC.21 driverstateCVToC.21" vType="vehLVOS860" speedFactor="0.94" vaporized=""/>
    <tripinfo id="CVToC.14" depart="66.20" departLane="entry_0" departPos="40.89" departSpeed="30.85" departDelay="6.90" arrival="239.80" arrivalLane="e0_0" arrivalPos="4800.00" arrivalSpeed="34.62" duration="173.60" routeLength="4959.11" waitingTime="0.00" waitingCount="0" stopTime="0.00" timeLoss="31.96" rerouteNo="0" devices="tripinfo_CVToC.14 routing_CVToC.14 ssm_CVToC.14 toc_CVToC.14 driverstateCVToC.14" vType="vehLVOS62" speedFactor="0.97" vaporized=""/>
    <tripinfo id="CAVToC.32" depart="84.10" departLane="entry_1" departPos="5.88" departSpeed="34.40" departDelay="7.30" arrival="241.10" arrivalLane="e0_1" arrivalPos="4800.00" arrivalSpeed="35.66" duration="157.00" routeLength="4994.12" waitingTime="0.00" waitingCount="0" stopTime="0.00" timeLoss="17.96" rerouteNo="0" devices="tripinfo_CAVToC.32 routing_CAVToC.32 ssm_CAVToC.32 toc_CAVToC.32 driverstateCAVToC.32" vType="vehLVOS853" speedFactor="1.00" vaporized=""/>
    <tripinfo id="CVToC.22" depart="86.60" departLane="entry_1" departPos="20.79" departSpeed="32.34" departDelay="8.00" arrival="243.60" arrivalLane="e0_1" arrivalPos="4800.00" arrivalSpeed="32.26" duration="157.00" routeLength="4979.21" waitingTime="0.00" waitingCount="0" stopTime="0.00" timeLoss="2.98" rerouteNo="0" devices="tripinfo_CVToC.22 routing_CVToC.22 ssm_CVToC.22 toc_CVToC.22 driverstateCVToC.22" vType="vehLVOS113" speedFactor="0.90" vaporized=""/>