<?xml version="1.0" encoding="UTF-8"?>

<!-- generated on Wed Jun 24 11:39:57 2020 by Eclipse SUMO Version v1_6_0+0553-a03471b
<configuration xmlns:xsi="http://www.w3.org/2001/XMLSchema-instance" xsi:noNamespaceSchemaLocation="http://sumo.dlr.de/xsd/sumoConfiguration.xsd">

    <input>
        <net-file value="scenario/UC5_1.net.xml"/>
        <route-files value="scenario/routes_trafficMix_0_trafficDemand_1_driverBehaviour_OS_seed_0.xml"/>
        <additional-files value="scenario/additionalsOutput_trafficMix_0_trafficDemand_1_driverBehaviour_OS_seed_0.xml,scenario/vTypesCAVToC_OS.add.xml,scenario/vTypesCVToC_OS.add.xml,scenario/vTypesLV_OS.add.xml,scenario/shapes.add.xml,scenario/view.add.xml"/>
    </input>

    <output>
        <tripinfo-output value="/home/noul_ar/workspace/tor-distribution/outputs/simulations/dnq_dc_seed_30.zip_20200624-101517/tripinfo_10.xml"/>
    </output>

    <time>
        <step-length value="0.1"/>
    </time>

    <processing>
        <step-method.ballistic value="true"/>
        <ignore-route-errors value="true"/>
        <lanechange.duration value="2.5"/>
    </processing>

    <report>
        <no-step-log value="true"/>
    </report>

    <toc_device>
        <device.toc.ogNewTimeHeadway value="100"/>
        <device.toc.ogNewSpaceHeadway value="5"/>
        <device.toc.ogMaxDecel value="1"/>
        <device.toc.ogChangeRate value="1"/>
    </toc_device>

    <traci_server>
        <remote-port value="51285"/>
    </traci_server>

    <random_number>
        <seed value="1034"/>
    </random_number>

    <gui_only>
        <tracker-interval value="0.1"/>
    </gui_only>

</configuration>
-->

<tripinfos xmlns:xsi="http://www.w3.org/2001/XMLSchema-instance" xsi:noNamespaceSchemaLocation="http://sumo.dlr.de/xsd/tripinfo_file.xsd">
    <tripinfo id="CAVToC.0" depart="0.40" departLane="entry_1" departPos="199.90" departSpeed="38.23" departDelay="0.00" arrival="126.00" arrivalLane="e0_0" arrivalPos="4800.00" arrivalSpeed="38.23" duration="125.60" routeLength="4800.10" waitingTime="0.00" waitingCount="0" stopTime="0.00" timeLoss="0.00" rerouteNo="0" devices="tripinfo_CAVToC.0 routing_CAVToC.0 ssm_CAVToC.0 toc_CAVToC.0 driverstateCAVToC.0" vType="vehLVOS19" speedFactor="1.06" vaporized=""/>
    <tripinfo id="LV.0" depart="0.30" departLane="entry_0" departPos="199.90" departSpeed="37.20" departDelay="0.00" arrival="129.50" arrivalLane="e0_0" arrivalPos="4800.00" arrivalSpeed="37.18" duration="129.20" routeLength="4800.10" waitingTime="0.00" waitingCount="0" stopTime="0.00" timeLoss="0.18" rerouteNo="0" devices="tripinfo_LV.0 routing_LV.0 ssm_LV.0" vType="vehLVOS597" speedFactor="1.03" vaporized=""/>
    <tripinfo id="CVToC.0" depart="1.60" departLane="entry_0" departPos="175.80" departSpeed="34.44" departDelay="0.00" arrival="142.20" arrivalLane="e0_0" arrivalPos="4800.00" arrivalSpeed="34.26" duration="140.60" routeLength="4824.20" waitingTime="0.00" waitingCount="0" stopTime="0.00" timeLoss="0.49" rerouteNo="0" devices="tripinfo_CVToC.0 routing_CVToC.0 ssm_CVToC.0 toc_CVToC.0 driverstateCVToC.0" vType="vehLVOS869" speedFactor="0.95" vaporized=""/>
    <tripinfo id="CAVToC.1" depart="0.70" departLane="entry_1" departPos="141.00" departSpeed="34.09" departDelay="0.00" arrival="143.40" arrivalLane="e0_1" arrivalPos="4800.00" arrivalSpeed="34.08" duration="142.70" routeLength="4859.00" waitingTime="0.00" waitingCount="0" stopTime="0.00" timeLoss="0.13" rerouteNo="0" devices="tripinfo_CAVToC.1 routing_CAVToC.1 ssm_CAVToC.1 toc_CAVToC.1 driverstateCAVToC.1" vType="vehLVOS85" speedFactor="0.94" vaporized=""/>
    <tripinfo id="LV.1" depart="2.50" departLane="entry_0" departPos="86.22" departSpeed="42.96" departDelay="0.00" arrival="144.60" arrivalLane="e0_1" arrivalPos="4800.00" arrivalSpeed="37.37" duration="142.10" routeLength="4913.78" waitingTime="0.00" waitingCount="0" stopTime="0.00" timeLoss="27.64" rerouteNo="0" devices="tripinfo_LV.1 routing_LV.1 ssm_LV.1" vType="vehLVOS538" speedFactor="1.19" vaporized=""/>
    <tripinfo id="LV.3" depart="4.20" departLane="entry_0" departPos="22.95" departSpeed="37.17" departDelay="0.30" arrival="146.60" arrivalLane="e0_1" arrivalPos="4800.00" arrivalSpeed="37.17" duration="142.40" routeLength="4977.05" waitingTime="0.00" waitingCount="0" stopTime="0.00" timeLoss="8.48" rerouteNo="0" devices="tripinfo_LV.3 routing_LV.3 ssm_LV.3" vType="vehLVOS180" speedFactor="1.03" vaporized=""/>
    <tripinfo id="LV.2" depart="2.60" departLane="entry_0" departPos="12.74" departSpeed="38.13" departDelay="0.00" arrival="147.40" arrivalLane="e0_0" arrivalPos="4800.00" arrivalSpeed="38.09" duration="144.80" routeLength="4987.26" waitingTime="0.00" waitingCount="0" stopTime="0.00" timeLoss="13.98" rerouteNo="0" devices="tripinfo_LV.2 routing_LV.2 ssm_LV.2" vType="vehLVOS68" speedFactor="1.06" vaporized=""/>
    <tripinfo id="CVToC.1" depart="5.10" departLane="entry_1" departPos="5.60" departSpeed="35.42" departDelay="1.00" arrival="147.60" arrivalLane="e0_1" arrivalPos="4800.00" arrivalSpeed="39.81" duration="142.50" routeLength="4994.40" waitingTime="0.00" waitingCount="0" stopTime="0.00" timeLoss="32.37" rerouteNo="0" devices="tripinfo_CVToC.1 routing_CVToC.1 ssm_CVToC.1 toc_CVToC.1 driverstateCVToC.1" vType="vehLVOS77" speedFactor="1.26" vaporized=""/>
    <tripinfo id="CVToC.2" depart="7.40" departLane="entry_1" departPos="1.60" departSpeed="34.24" departDelay="0.80" arrival="148.70" arrivalLane="e0_1" arrivalPos="4800.00" arrivalSpeed="37.73" duration="141.30" routeLength="4998.40" waitingTime="0.00" waitingCount="0" stopTime="0.00" timeLoss="8.96" rerouteNo="0" devices="tripinfo_CVToC.2 routing_CVToC.2 ssm_CVToC.2 toc_CVToC.2 driverstateCVToC.2" vType="vehLVOS697" speedFactor="1.05" vaporized=""/>
    <tripinfo id="CAVToC.2" depart="2.20" departLane="entry_1" departPos="120.38" departSpeed="33.71" departDelay="0.00" arrival="148.90" arrivalLane="e0_0" arrivalPos="4800.00" arrivalSpeed="33.68" duration="146.70" routeLength="4879.62" waitingTime="0.00" waitingCount="0" stopTime="0.00" timeLoss="1.89" rerouteNo="0" devices="tripinfo_CAVToC.2 routing_CAVToC.2 ssm_CAVToC.2 toc_CAVToC.2 driverstateCAVToC.2" vType="vehLVOS9" speedFactor="0.93" vaporized=""/>
    <tripinfo id="CAVToC.6" depart="11.90" departLane="entry_1" departPos="0.50" departSpeed="33.36" departDelay="3.20" arrival="150.70" arrivalLane="e0_1" arrivalPos="4800.00" arrivalSpeed="38.80" duration="138.80" routeLength="4999.50" waitingTime="0.00" waitingCount="0" stopTime="0.00" timeLoss="10.15" rerouteNo="0" devices="tripinfo_CAVToC.6 routing_CAVToC.6 ssm_CAVToC.6 toc_CAVToC.6 driverstateCAVToC.6" vType="vehLVOS168" speedFactor="1.08" vaporized=""/>
    <tripinfo id="CAVToC.3" depart="6.00" departLane="entry_0" departPos="1.87" departSpeed="35.69" departDelay="0.30" arrival="152.40" arrivalLane="e0_0" arrivalPos="4800.00" arrivalSpeed="37.35" duration="146.40" routeLength="4998.13" waitingTime="0.00" waitingCount="0" stopTime="0.00" timeLoss="18.71" rerouteNo="0" devices="tripinfo_CAVToC.3 routing_CAVToC.3 ssm_CAVToC.3 toc_CAVToC.3 driverstateCAVToC.3" vType="vehLVOS277" speedFactor="1.08" vaporized=""/>
    <tripinfo id="CVToC.4" depart="10.70" departLane="entry_0" departPos="7.57" departSpeed="33.30" departDelay="1.40" arrival="162.90" arrivalLane="e0_1" arrivalPos="4800.00" arrivalSpeed="34.98" duration="152.20" routeLength="4992.43" waitingTime="0.00" waitingCount="0" stopTime="0.00" timeLoss="9.59" rerouteNo="0" devices="tripinfo_CVToC.4 routing_CVToC.4 ssm_CVToC.4 toc_CVToC.4 driverstateCVToC.4" vType="vehLVOS20" speedFactor="0.97" vaporized=""/>
    <tripinfo id="CAVToC.4" depart="8.30" departLane="entry_0" departPos="3.99" departSpeed="33.55" departDelay="0.10" arrival="164.10" arrivalLane="e0_1" arrivalPos="4800.00" arrivalSpeed="35.80" duration="155.80" routeLength="4996.01" waitingTime="0.00" waitingCount="0" stopTime="0.00" timeLoss="16.53" rerouteNo="0" devices="tripinfo_CAVToC.4 routing_CAVToC.4 ssm_CAVToC.4 toc_CAVToC.4 driverstateCAVToC.4" vType="vehLVOS139" speedFactor="0.99" vaporized=""/>
    <tripinfo id="CAVToC.5" depart="9.60" departLane="entry_1" departPos="7.47" departSpeed="32.64" departDelay="1.20" arrival="165.60" arrivalLane="e0_0" arrivalPos="4800.00" arrivalSpeed="32.63" duration="156.00" routeLength="4992.53" waitingTime="0.00" waitingCount="0" stopTime="0.00" timeLoss="2.97" rerouteNo="0" devices="tripinfo_CAVToC.5 routing_CAVToC.5 ssm_CAVToC.5 toc_CAVToC.5 driverstateCAVToC.5" vType="vehLVOS491" speedFactor="0.90" vaporized=""/>
    <tripinfo id="CVToC.6" depart="13.80" departLane="entry_1" departPos="3.21" departSpeed="29.80" departDelay="1.50" arrival="182.40" arrivalLane="e0_1" arrivalPos="4800.00" arrivalSpeed="29.80" duration="168.60" routeLength="4996.79" waitingTime="0.00" waitingCount="0" stopTime="0.00" timeLoss="0.85" rerouteNo="0" devices="tripinfo_CVToC.6 routing_CVToC.6 ssm_CVToC.6 toc_CVToC.6 driverstateCVToC.6" vType="vehLVOS853" speedFactor="0.83" vaporized=""/>
    <tripinfo id="CVToC.3" depart="13.20" departLane="entry_0" departPos="8.47" departSpeed="33.24" departDelay="4.70" arrival="184.40" arrivalLane="e0_0" arrivalPos="4800.00" arrivalSpeed="34.48" duration="171.20" routeLength="4991.53" waitingTime="0.00" waitingCount="0" stopTime="0.00" timeLoss="38.42" rerouteNo="0" devices="tripinfo_CVToC.3 routing_CVToC.3 ssm_CVToC.3 toc_CVToC.3 driverstateCVToC.3" vType="vehLVOS19" speedFactor="1.04" vaporized=""/>
    <tripinfo id="CVToC.7" depart="16.50" departLane="entry_1" departPos="4.28" departSpeed="30.63" departDelay="0.90" arrival="185.20" arrivalLane="e0_1" arrivalPos="4800.00" arrivalSpeed="34.04" duration="168.70" routeLength="4995.72" waitingTime="0.00" waitingCount="0" stopTime="0.00" timeLoss="33.61" rerouteNo="0" devices="tripinfo_CVToC.7 routing_CVToC.7 ssm_CVToC.7 toc_CVToC.7 driverstateCVToC.7" vType="vehLVOS138" speedFactor="1.02" vaporized=""/>
    <tripinfo id="CVToC.5" depart="15.50" departLane="entry_0" departPos="16.02" departSpeed="33.05" departDelay="4.80" arrival="185.40" arrivalLane="e0_0" arrivalPos="4800.00" arrivalSpeed="31.97" duration="169.90" routeLength="4983.98" waitingTime="0.00" waitingCount="0" stopTime="0.00" timeLoss="21.88" rerouteNo="0" devices="tripinfo_CVToC.5 routing_CVToC.5 ssm_CVToC.5 toc_CVToC.5 driverstateCVToC.5" vType="vehLVOS863" speedFactor="0.93" vaporized=""/>
    <tripinfo id="CAVToC.7" depart="17.90" departLane="entry_0" departPos="8.17" departSpeed="30.61" departDelay="2.60" arrival="187.40" arrivalLane="e0_0" arrivalPos="4800.00" arrivalSpeed="32.70" duration="169.50" routeLength="4991.83" waitingTime="0.00" waitingCount="0" stopTime="0.00" timeLoss="33.17" rerouteNo="0" devices="tripinfo_CAVToC.7 routing_CAVToC.7 ssm_CAVToC.7 toc_CAVToC.7 driverstateCAVToC.7" vType="vehLVOS224" speedFactor="1.01" vaporized=""/>
    <tripinfo id="CVToC.8" depart="19.00" departLane="entry_1" departPos="4.64" departSpeed="30.96" departDelay="2.20" arrival="188.50" arrivalLane="e0_1" arrivalPos="4800.00" arrivalSpeed="34.07" duration="169.50" routeLength="4995.36" waitingTime="0.00" waitingCount="0" stopTime="0.00" timeLoss="22.98" rerouteNo="0" devices="tripinfo_CVToC.8 routing_CVToC.8 ssm_CVToC.8 toc_CVToC.8 driverstateCVToC.8" vType="vehLVOS986" speedFactor="0.94" vaporized=""/>
    <tripinfo id="LV.4" depart="23.50" departLane="entry_1" departPos="2.37" departSpeed="33.74" departDelay="13.40" arrival="190.80" arrivalLane="e0_1" arrivalPos="4800.00" arrivalSpeed="33.66" duration="167.30" routeLength="4997.63" waitingTime="0.00" waitingCount="0" stopTime="0.00" timeLoss="19.09" rerouteNo="0" devices="tripinfo_LV.4 routing_LV.4 ssm_LV.4" vType="vehLVOS826" speedFactor="0.93" vaporized=""/>
    <tripinfo id="CAVToC.9" depart="20.70" departLane="entry_0" departPos="7.08" departSpeed="31.49" departDelay="0.60" arrival="192.00" arrivalLane="e0_1" arrivalPos="4800.00" arrivalSpeed="34.86" duration="171.30" routeLength="4992.92" waitingTime="0.00" waitingCount="0" stopTime="0.00" timeLoss="45.90" rerouteNo="0" devices="tripinfo_CAVToC.9 routing_CAVToC.9 ssm_CAVToC.9 toc_CAVToC.9 driverstateCAVToC.9" vType="vehLVOS610" speedFactor="1.10" vaporized=""/>
    <tripinfo id="LV.5" depart="25.20" departLane="entry_0" departPos="2.75" departSpeed="40.06" departDelay="11.00" arrival="193.20" arrivalLane="e0_0" arrivalPos="4800.00" arrivalSpeed="36.43" duration="168.00" routeLength="4997.25" waitingTime="0.00" waitingCount="0" stopTime="0.00" timeLoss="43.26" rerouteNo="0" devices="tripinfo_LV.5 routing_LV.5 ssm_LV.5" vType="vehLVOS198" speedFactor="1.11" vaporized=""/>
    <tripinfo id="CAVToC.8" depart="26.20" departLane="entry_1" departPos="0.50" departSpeed="33.40" departDelay="9.30" arrival="193.20" arrivalLane="e0_1" arrivalPos="4800.00" arrivalSpeed="36.95" duration="167.00" routeLength="4999.50" waitingTime="0.00" waitingCount="0" stopTime="0.00" timeLoss="50.50" rerouteNo="0" devices="tripinfo_CAVToC.8 routing_CAVToC.8 ssm_CAVToC.8 toc_CAVToC.8 driverstateCAVToC.8" vType="vehLVOS768" speedFactor="1.19" vaporized=""/>
    <tripinfo id="LV.7" depart="28.10" departLane="entry_0" departPos="12.49" departSpeed="40.43" departDelay="1.70" arrival="194.10" arrivalLane="e0_0" arrivalPos="4800.00" arrivalSpeed="36.68" duration="166.00" routeLength="4987.51" waitingTime="0.00" waitingCount="0" stopTime="0.00" timeLoss="42.58" rerouteNo="0" devices="tripinfo_LV.7 routing_LV.7 ssm_LV.7" vType="vehLVOS383" speedFactor="1.12" vaporized=""/>
    <tripinfo id="CAVToC.10" depart="28.70" departLane="entry_1" departPos="5.83" departSpeed="33.39" departDelay="1.90" arrival="195.10" arrivalLane="e0_1" arrivalPos="4800.00" arrivalSpeed="35.18" duration="166.40" routeLength="4994.17" waitingTime="0.00" waitingCount="0" stopTime="0.00" timeLoss="24.50" rerouteNo="0" devices="tripinfo_CAVToC.10 routing_CAVToC.10 ssm_CAVToC.10 toc_CAVToC.10 driverstateCAVToC.10" vType="vehLVOS914" speedFactor="0.98" vaporized=""/>
    <tripinfo id="CAVToC.11" depart="30.90" departLane="entry_1" departPos="2.97" departSpeed="33.44" departDelay="2.90" arrival="196.40" arrivalLane="e0_1" arrivalPos="4800.00" arrivalSpeed="35.03" duration="165.50" routeLength="4997.03" waitingTime="0.00" waitingCount="0" stopTime="0.00" timeLoss="23.46" rerouteNo="0" devices="tripinfo_CAVToC.11 routing_CAVToC.11 ssm_CAVToC.11 toc_CAVToC.11 driverstateCAVToC.11" vType="vehLVOS892" speedFactor="0.97" vaporized=""/>
    <tripinfo id="CVToC.9" depart="29.90" departLane="entry_0" departPos="0.40" departSpeed="35.50" departDelay="2.80" arrival="196.50" arrivalLane="e0_0" arrivalPos="4800.00" arrivalSpeed="35.26" duration="166.60" routeLength="4999.60" waitingTime="0.00" waitingCount="0" stopTime="0.00" timeLoss="27.72" rerouteNo="0" devices="tripinfo_CVToC.9 routing_CVToC.9 ssm_CVToC.9 toc_CVToC.9 driverstateCVToC.9" vType="vehLVOS477" speedFactor="1.00" vaporized=""/>
    <tripinfo id="CAVToC.13" depart="33.50" departLane="entry_1" departPos="5.96" departSpeed="34.04" departDelay="1.90" arrival="198.30" arrivalLane="e0_1" arrivalPos="4800.00" arrivalSpeed="38.91" duration="164.80" routeLength="4994.04" waitingTime="0.00" waitingCount="0" stopTime="0.00" timeLoss="41.27" rerouteNo="0" devices="tripinfo_CAVToC.13 routing_CAVToC.13 ssm_CAVToC.13 toc_CAVToC.13 driverstateCAVToC.13" vType="vehLVOS292" speedFactor="1.12" vaporized=""/>
    <tripinfo id="CVToC.12" depart="36.00" departLane="entry_1" departPos="18.26" departSpeed="33.82" departDelay="3.50" arrival="199.70" arrivalLane="e0_0" arrivalPos="4800.00" arrivalSpeed="35.11" duration="163.70" routeLength="4981.74" waitingTime="0.00" waitingCount="0" stopTime="0.00" timeLoss="21.83" rerouteNo="0" devices="tripinfo_CVToC.12 routing_CVToC.12 ssm_CVToC.12 toc_CVToC.12 driverstateCVToC.12" vType="vehLVOS461" speedFactor="0.97" vaporized=""/>
    <tripinfo id="CVToC.10" depart="38.40" departLane="entry_1" departPos="14.50" departSpeed="33.85" departDelay="7.60" arrival="199.80" arrivalLane="e0_1" arrivalPos="4800.00" arrivalSpeed="38.50" duration="161.40" routeLength="4985.50" waitingTime="0.00" waitingCount="0" stopTime="0.00" timeLoss="31.90" rerouteNo="0" devices="tripinfo_CVToC.10 routing_CVToC.10 ssm_CVToC.10 toc_CVToC.10 driverstateCVToC.10" vType="vehLVOS51" speedFactor="1.07" vaporized=""/>
    <tripinfo id="CVToC.11" depart="40.70" departLane="entry_1" departPos="14.81" departSpeed="33.69" departDelay="8.60" arrival="201.20" arrivalLane="e0_1" arrivalPos="4800.00" arrivalSpeed="37.24" duration="160.50" routeLength="4985.19" waitingTime="0.00" waitingCount="0" stopTime="0.00" timeLoss="26.86" rerouteNo="0" devices="tripinfo_CVToC.11 routing_CVToC.11 ssm_CVToC.11 toc_CVToC.11 driverstateCVToC.11" vType="vehLVOS842" speedFactor="1.03" vaporized=""/>
    <tripinfo id="CAVToC.12" depart="32.10" departLane="entry_0" departPos="3.59" departSpeed="33.29" departDelay="2.50" arrival="201.40" arrivalLane="e0_0" arrivalPos="4800.00" arrivalSpeed="34.36" duration="169.30" routeLength="4996.41" waitingTime="0.00" waitingCount="0" stopTime="0.00" timeLoss="23.91" rerouteNo="0" devices="tripinfo_CAVToC.12 routing_CAVToC.12 ssm_CAVToC.12 toc_CAVToC.12 driverstateCAVToC.12" vType="vehLVOS374" speedFactor="0.95" vaporized=""/>
    <tripinfo id="CAVToC.14" depart="34.80" departLane="entry_0" departPos="11.02" departSpeed="33.52" departDelay="1.70" arrival="202.50" arrivalLane="e0_0" arrivalPos="4800.00" arrivalSpeed="35.66" duration="167.70" routeLength="4988.98" waitingTime="0.00" waitingCount="0" stopTime="0.00" timeLoss="35.74" rerouteNo="0" devices="tripinfo_CAVToC.14 routing_CAVToC.14 ssm_CAVToC.14 toc_CAVToC.14 driverstateCAVToC.14" vType="vehLVOS271" speedFactor="1.05" vaporized=""/>
    <tripinfo id="LV.9" depart="44.70" departLane="entry_1" departPos="8.18" departSpeed="37.38" departDelay="7.40" arrival="203.10" arrivalLane="e0_1" arrivalPos="4800.00" arrivalSpeed="37.35" duration="158.40" routeLength="4991.82" waitingTime="0.00" waitingCount="0" stopTime="0.00" timeLoss="24.87" rerouteNo="0" devices="tripinfo_LV.9 routing_LV.9 ssm_LV.9" vType="vehLVOS736" speedFactor="1.04" vaporized=""/>
    <tripinfo id="CVToC.13" depart="38.10" departLane="entry_0" departPos="40.05" departSpeed="33.17" departDelay="4.00" arrival="203.40" arrivalLane="e0_0" arrivalPos="4800.00" arrivalSpeed="37.81" duration="165.30" routeLength="4959.95" waitingTime="0.00" waitingCount="0" stopTime="0.00" timeLoss="34.65" rerouteNo="0" devices="tripinfo_CVToC.13 routing_CVToC.13 ssm_CVToC.13 toc_CVToC.13 driverstateCVToC.13" vType="vehLVOS666" speedFactor="1.05" vaporized=""/>
    <tripinfo id="LV.6" depart="46.80" departLane="entry_1" departPos="1.85" departSpeed="37.17" departDelay="31.10" arrival="205.00" arrivalLane="e0_1" arrivalPos="4800.00" arrivalSpeed="37.16" duration="158.20" routeLength="4998.15" waitingTime="0.00" waitingCount="0" stopTime="0.00" timeLoss="23.66" rerouteNo="0" devices="tripinfo_LV.6 routing_LV.6 ssm_LV.6" vType="vehLVOS298" speedFactor="1.03" vaporized=""/>
    <tripinfo id="CAVToC.17" depart="49.10" departLane="entry_1" departPos="1.45" departSpeed="33.03" departDelay="10.90" arrival="206.10" arrivalLane="e0_1" arrivalPos="4800.00" arrivalSpeed="34.39" duration="157.00" routeLength="4998.55" waitingTime="0.00" waitingCount="0" stopTime="0.00" timeLoss="12.04" rerouteNo="0" devices="tripinfo_CAVToC.17 routing_CAVToC.17 ssm_CAVToC.17 toc_CAVToC.17 driverstateCAVToC.17" vType="vehLVOS13" speedFactor="0.96" vaporized=""/>
    <tripinfo id="LV.11" depart="47.60" departLane="entry_1" departPos="23.94" departSpeed="32.80" departDelay="3.00" arrival="206.40" arrivalLane="e0_0" arrivalPos="4800.00" arrivalSpeed="32.74" duration="158.80" routeLength="4976.06" waitingTime="0.00" waitingCount="0" stopTime="0.00" timeLoss="7.05" rerouteNo="0" devices="tripinfo_LV.11 routing_LV.11 ssm_LV.11" vType="vehLVOS731" speedFactor="0.91" vaporized=""/>
    <tripinfo id="CVToC.17" depart="51.70" departLane="entry_1" departPos="6.19" departSpeed="33.44" departDelay="5.80" arrival="208.10" arrivalLane="e0_1" arrivalPos="4800.00" arrivalSpeed="37.20" duration="156.40" routeLength="4993.81" waitingTime="0.00" waitingCount="0" stopTime="0.00" timeLoss="22.07" rerouteNo="0" devices="tripinfo_CVToC.17 routing_CVToC.17 ssm_CVToC.17 toc_CVToC.17 driverstateCVToC.17" vType="vehLVOS168" speedFactor="1.03" vaporized=""/>
    <tripinfo id="CAVToC.15" depart="39.70" departLane="entry_0" departPos="30.01" departSpeed="30.33" departDelay="4.90" arrival="209.10" arrivalLane="e0_0" arrivalPos="4800.00" arrivalSpeed="30.28" duration="169.40" routeLength="4969.99" waitingTime="0.00" waitingCount="0" stopTime="0.00" timeLoss="5.44" rerouteNo="0" devices="tripinfo_CAVToC.15 routing_CAVToC.15 ssm_CAVToC.15 toc_CAVToC.15 driverstateCAVToC.15" vType="vehLVOS235" speedFactor="0.84" vaporized=""/>
    <tripinfo id="CVToC.18" depart="54.30" departLane="entry_1" departPos="13.14" departSpeed="33.92" departDelay="1.10" arrival="209.60" arrivalLane="e0_1" arrivalPos="4800.00" arrivalSpeed="38.25" duration="155.30" routeLength="4986.86" waitingTime="0.00" waitingCount="0" stopTime="0.00" timeLoss="25.72" rerouteNo="0" devices="tripinfo_CVToC.18 routing_CVToC.18 ssm_CVToC.18 toc_CVToC.18 driverstateCVToC.18" vType="vehLVOS102" speedFactor="1.07" vaporized=""/>
    <tripinfo id="CVToC.14" depart="41.40" departLane="entry_0" departPos="0.80" departSpeed="30.73" departDelay="5.50" arrival="211.90" arrivalLane="e0_0" arrivalPos="4800.00" arrivalSpeed="34.70" duration="170.50" routeLength="4999.20" waitingTime="0.00" waitingCount="0" stopTime="0.00" timeLoss="33.67" rerouteNo="0" devices="tripinfo_CVToC.14 routing_CVToC.14 ssm_CVToC.14 toc_CVToC.14 driverstateCVToC.14" vType="vehLVOS95" speedFactor="1.01" vaporized=""/>
    <tripinfo id="CVToC.20" depart="57.30" departLane="entry_1" departPos="1.71" departSpeed="32.77" departDelay="0.50" arrival="212.30" arrivalLane="e0_1" arrivalPos="4800.00" arrivalSpeed="36.43" duration="155.00" routeLength="4998.29" waitingTime="0.00" waitingCount="0" stopTime="0.00" timeLoss="17.77" rerouteNo="0" devices="tripinfo_CVToC.20 routing_CVToC.20 ssm_CVToC.20 toc_CVToC.20 driverstateCVToC.20" vType="vehLVOS975" speedFactor="1.01" vaporized=""/>
    <tripinfo id="LV.10" depart="44.40" departLane="entry_0" departPos="17.13" departSpeed="33.70" departDelay="7.00" arrival="213.10" arrivalLane="e0_0" arrivalPos="4800.00" arrivalSpeed="33.63" duration="168.70" routeLength="4982.87" waitingTime="0.00" waitingCount="0" stopTime="0.00" timeLoss="20.80" rerouteNo="0" devices="tripinfo_LV.10 routing_LV.10 ssm_LV.10" vType="vehLVOS523" speedFactor="0.93" vaporized=""/>
    <tripinfo id="LV.13" depart="54.90" departLane="entry_1" departPos="3.76" departSpeed="32.36" departDelay="0.10" arrival="214.60" arrivalLane="e0_0" arrivalPos="4800.00" arrivalSpeed="32.31" duration="159.70" routeLength="4996.24" waitingTime="0.00" waitingCount="0" stopTime="0.00" timeLoss="5.22" rerouteNo="0" devices="tripinfo_LV.13 routing_LV.13 ssm_LV.13" vType="vehLVOS73" speedFactor="0.90" vaporized=""/>
    <tripinfo id="LV.12" depart="61.40" departLane="entry_1" departPos="8.83" departSpeed="33.74" departDelay="12.00" arrival="215.90" arrivalLane="e0_1" arrivalPos="4800.00" arrivalSpeed="33.71" duration="154.50" routeLength="4991.17" waitingTime="0.00" waitingCount="0" stopTime="0.00" timeLoss="6.52" rerouteNo="0" devices="tripinfo_LV.12 routing_LV.12 ssm_LV.12" vType="vehLVOS592" speedFactor="0.93" vaporized=""/>
    <tripinfo id="CAVToC.19" depart="63.80" departLane="entry_1" departPos="3.78" departSpeed="34.12" departDelay="6.70" arrival="216.70" arrivalLane="e0_1" arrivalPos="4800.00" arrivalSpeed="34.70" duration="152.90" routeLength="4996.22" waitingTime="0.00" waitingCount="0" stopTime="0.00" timeLoss="23.73" rerouteNo="0" devices="tripinfo_CAVToC.19 routing_CAVToC.19 ssm_CAVToC.19 toc_CAVToC.19 driverstateCAVToC.19" vType="vehLVOS999" speedFactor="1.07" vaporized=""/>
    <tripinfo id="CAVToC.16" depart="46.10" departLane="entry_0" departPos="2.05" departSpeed="32.96" departDelay="8.00" arrival="216.80" arrivalLane="e0_0" arrivalPos="4800.00" arrivalSpeed="33.47" duration="170.70" routeLength="4997.95" waitingTime="0.00" waitingCount="0" stopTime="0.00" timeLoss="21.45" rerouteNo="0" devices="tripinfo_CAVToC.16 routing_CAVToC.16 ssm_CAVToC.16 toc_CAVToC.16 driverstateCAVToC.16" vType="vehLVOS961" speedFactor="0.93" vaporized=""/>
    <tripinfo id="CAVToC.21" depart="66.30" departLane="entry_1" departPos="12.44" departSpeed="34.37" departDelay="5.00" arrival="218.80" arrivalLane="e0_1" arrivalPos="4800.00" arrivalSpeed="36.10" duration="152.50" routeLength="4987.56" waitingTime="0.00" waitingCount="0" stopTime="0.00" timeLoss="19.38" rerouteNo="0" devices="tripinfo_CAVToC.21 routing_CAVToC.21 ssm_CAVToC.21 toc_CAVToC.21 driverstateCAVToC.21" vType="vehLVOS288" speedFactor="1.04" vaporized=""/>
    <tripinfo id="CVToC.15" depart="48.70" departLane="entry_0" departPos="13.41" departSpeed="32.64" departDelay="4.10" arrival="219.20" arrivalLane="e0_0" arrivalPos="4800.00" arrivalSpeed="33.30" duration="170.50" routeLength="4986.59" waitingTime="0.00" waitingCount="0" stopTime="0.00" timeLoss="20.80" rerouteNo="0" devices="tripinfo_CVToC.15 routing_CVToC.15 ssm_CVToC.15 toc_CVToC.15 driverstateCVToC.15" vType="vehLVOS719" speedFactor="0.92" vaporized=""/>
    <tripinfo id="CAVToC.18" depart="50.80" departLane="entry_0" departPos="2.01" departSpeed="33.00" departDelay="5.60" arrival="220.30" arrivalLane="e0_0" arrivalPos="4800.00" arrivalSpeed="35.15" duration="169.50" routeLength="4997.99" waitingTime="0.00" waitingCount="0" stopTime="0.00" timeLoss="33.22" rerouteNo="0" devices="tripinfo_CAVToC.18 routing_CAVToC.18 ssm_CAVToC.18 toc_CAVToC.18 driverstateCAVToC.18" vType="vehLVOS793" speedFactor="1.02" vaporized=""/>
    <tripinfo id="CVToC.23" depart="70.40" departLane="entry_1" departPos="66.89" departSpeed="34.73" departDelay="9.20" arrival="220.30" arrivalLane="e0_1" arrivalPos="4800.00" arrivalSpeed="37.11" duration="149.90" routeLength="4933.11" waitingTime="0.00" waitingCount="0" stopTime="0.00" timeLoss="27.44" rerouteNo="0" devices="tripinfo_CVToC.23 routing_CVToC.23 ssm_CVToC.23 toc_CVToC.23 driverstateCVToC.23" vType="vehLVOS789" speedFactor="1.12" vaporized=""/>
    <tripinfo id="CAVToC.22" depart="71.20" departLane="entry_1" departPos="16.58" departSpeed="35.06" departDelay="9.30" arrival="221.40" arrivalLane="e0_1" arrivalPos="4800.00" arrivalSpeed="36.92" duration="150.20" routeLength="4983.42" waitingTime="0.00" waitingCount="0" stopTime="0.00" timeLoss="17.99" rerouteNo="0" devices="tripinfo_CAVToC.22 routing_CAVToC.22 ssm_CAVToC.22 toc_CAVToC.22 driverstateCAVToC.22" vType="vehLVOS208" speedFactor="1.04" vaporized=""/>
    <tripinfo id="CVToC.16" depart="53.70" departLane="entry_0" departPos="11.42" departSpeed="33.51" departDelay="8.10" arrival="222.40" arrivalLane="e0_0" arrivalPos="4800.00" arrivalSpeed="37.13" duration="168.70" routeLength="4988.58" waitingTime="0.00" waitingCount="0" stopTime="0.00" timeLoss="43.58" rerouteNo="0" devices="tripinfo_CVToC.16 routing_CVToC.16 ssm_CVToC.16 toc_CVToC.16 driverstateCVToC.16" vType="vehLVOS240" speedFactor="1.10" vaporized=""/>
    <tripinfo id="CVToC.25" depart="74.50" departLane="entry_1" departPos="49.46" departSpeed="35.20" departDelay="9.30" arrival="225.60" arrivalLane="e0_1" arrivalPos="4800.00" arrivalSpeed="38.79" duration="151.10" routeLength="4950.54" waitingTime="0.00" waitingCount="0" stopTime="0.00" timeLoss="23.66" rerouteNo="0" devices="tripinfo_CVToC.25 routing_CVToC.25 ssm_CVToC.25 toc_CVToC.25 driverstateCVToC.25" vType="vehLVOS687" speedFactor="1.08" vaporized=""/>
    <tripinfo id="CVToC.26" depart="76.90" departLane="entry_0" departPos="90.91" departSpeed="31.50" departDelay="11.40" arrival="226.60" arrivalLane="e0_0" arrivalPos="4800.00" arrivalSpeed="35.74" duration="149.70" routeLength="4909.09" waitingTime="0.00" waitingCount="0" stopTime="0.00" timeLoss="12.41" rerouteNo="0" devices="tripinfo_CVToC.26 routing_CVToC.26 ssm_CVToC.26 toc_CVToC.26 driverstateCVToC.26" vType="vehLVOS329" speedFactor="0.99" vaporized=""/>
    <tripinfo id="CVToC.28" depart="78.80" departLane="entry_1" departPos="24.97" departSpeed="28.47" departDelay="10.60" arrival="227.80" arrivalLane="e0_1" arrivalPos="4800.00" arrivalSpeed="39.14" duration="149.00" routeLength="4975.03" waitingTime="0.00" waitingCount="0" stopTime="0.00" timeLoss="21.80" rerouteNo="0" devices="tripinfo_CVToC.28 routing_CVToC.28 ssm_CVToC.28 toc_CVToC.28 driverstateCVToC.28" vType="vehLVOS200" speedFactor="1.08" vaporized=""/>
    <tripinfo id="CVToC.22" depart="62.30" departLane="entry_0" departPos="0.77" departSpeed="33.11" departDelay="4.50" arrival="230.00" arrivalLane="e0_1" arrivalPos="4800.00" arrivalSpeed="41.12" duration="167.70" routeLength="4999.23" waitingTime="0.00" waitingCount="0" stopTime="0.00" timeLoss="52.30" rerouteNo="0" devices="tripinfo_CVToC.22 routing_CVToC.22 ssm_CVToC.22 toc_CVToC.22 driverstateCVToC.22" vType="vehLVOS359" speedFactor="1.20" vaporized=""/>
    <tripinfo id="LV.14" depart="55.60" departLane="entry_0" departPos="60.81" departSpeed="30.21" departDelay="0.40" arrival="230.10" arrivalLane="e0_0" arrivalPos="4800.00" arrivalSpeed="30.20" duration="174.50" routeLength="4939.19" waitingTime="0.00" waitingCount="0" stopTime="0.00" timeLoss="10.96" rerouteNo="0" devices="tripinfo_LV.14 routing_LV.14 ssm_LV.14" vType="vehLVOS392" speedFactor="0.84" vaporized=""/>
    <tripinfo id="CVToC.19" depart="56.70" departLane="entry_0" departPos="1.26" departSpeed="30.39" departDelay="2.50" arrival="232.80" arrivalLane="e0_0" arrivalPos="4800.00" arrivalSpeed="35.16" duration="176.10" routeLength="4998.74" waitingTime="0.00" waitingCount="0" stopTime="0.00" timeLoss="61.16" rerouteNo="0" devices="tripinfo_CVToC.19 routing_CVToC.19 ssm_CVToC.19 toc_CVToC.19 driverstateCVToC.19" vType="vehLVOS226" speedFactor="1.20" vaporized=""/>