<?xml version="1.0" encoding="UTF-8"?>

<!-- generated on Wed Jun 24 10:52:36 2020 by Eclipse SUMO Version v1_6_0+0553-a03471b
<configuration xmlns:xsi="http://www.w3.org/2001/XMLSchema-instance" xsi:noNamespaceSchemaLocation="http://sumo.dlr.de/xsd/sumoConfiguration.xsd">

    <input>
        <net-file value="scenario/UC5_1.net.xml"/>
        <route-files value="scenario/routes_trafficMix_0_trafficDemand_1_driverBehaviour_OS_seed_0.xml"/>
        <additional-files value="scenario/additionalsOutput_trafficMix_0_trafficDemand_1_driverBehaviour_OS_seed_0.xml,scenario/vTypesCAVToC_OS.add.xml,scenario/vTypesCVToC_OS.add.xml,scenario/vTypesLV_OS.add.xml,scenario/shapes.add.xml,scenario/view.add.xml"/>
    </input>

    <output>
        <tripinfo-output value="/home/noul_ar/workspace/tor-distribution/outputs/simulations/dnq_dc_seed_30.zip_20200624-101517/tripinfo_5.xml"/>
    </output>

    <time>
        <step-length value="0.1"/>
    </time>

    <processing>
        <step-method.ballistic value="true"/>
        <ignore-route-errors value="true"/>
        <lanechange.duration value="2.5"/>
    </processing>

    <report>
        <no-step-log value="true"/>
    </report>

    <toc_device>
        <device.toc.ogNewTimeHeadway value="100"/>
        <device.toc.ogNewSpaceHeadway value="5"/>
        <device.toc.ogMaxDecel value="1"/>
        <device.toc.ogChangeRate value="1"/>
    </toc_device>

    <traci_server>
        <remote-port value="59059"/>
    </traci_server>

    <random_number>
        <seed value="1029"/>
    </random_number>

    <gui_only>
        <tracker-interval value="0.1"/>
    </gui_only>

</configuration>
-->

<tripinfos xmlns:xsi="http://www.w3.org/2001/XMLSchema-instance" xsi:noNamespaceSchemaLocation="http://sumo.dlr.de/xsd/tripinfo_file.xsd">
    <tripinfo id="CVToC.0" depart="6.40" departLane="entry_0" departPos="199.90" departSpeed="40.78" departDelay="0.00" arrival="124.40" arrivalLane="e0_0" arrivalPos="4800.00" arrivalSpeed="40.63" duration="118.00" routeLength="4800.10" waitingTime="0.00" waitingCount="0" stopTime="0.00" timeLoss="0.23" rerouteNo="0" devices="tripinfo_CVToC.0 routing_CVToC.0 ssm_CVToC.0 toc_CVToC.0 driverstateCVToC.0" vType="vehLVOS899" speedFactor="1.13" vaporized=""/>
    <tripinfo id="CVToC.2" depart="8.10" departLane="entry_0" departPos="192.67" departSpeed="36.48" departDelay="0.00" arrival="140.00" arrivalLane="e0_0" arrivalPos="4800.00" arrivalSpeed="36.47" duration="131.90" routeLength="4807.33" waitingTime="0.00" waitingCount="0" stopTime="0.00" timeLoss="0.05" rerouteNo="0" devices="tripinfo_CVToC.2 routing_CVToC.2 ssm_CVToC.2 toc_CVToC.2 driverstateCVToC.2" vType="vehLVOS335" speedFactor="1.01" vaporized=""/>
    <tripinfo id="CVToC.1" depart="7.60" departLane="entry_1" departPos="199.90" departSpeed="33.37" departDelay="0.00" arrival="151.70" arrivalLane="e0_1" arrivalPos="4800.00" arrivalSpeed="33.32" duration="144.10" routeLength="4800.10" waitingTime="0.00" waitingCount="0" stopTime="0.00" timeLoss="0.26" rerouteNo="0" devices="tripinfo_CVToC.1 routing_CVToC.1 ssm_CVToC.1 toc_CVToC.1 driverstateCVToC.1" vType="vehLVOS940" speedFactor="0.92" vaporized=""/>
    <tripinfo id="CVToC.3" depart="11.40" departLane="entry_1" departPos="199.90" departSpeed="35.18" departDelay="0.00" arrival="152.70" arrivalLane="e0_1" arrivalPos="4800.00" arrivalSpeed="34.47" duration="141.30" routeLength="4800.10" waitingTime="0.00" waitingCount="0" stopTime="0.00" timeLoss="4.75" rerouteNo="0" devices="tripinfo_CVToC.3 routing_CVToC.3 ssm_CVToC.3 toc_CVToC.3 driverstateCVToC.3" vType="vehLVOS495" speedFactor="0.97" vaporized=""/>
    <tripinfo id="CVToC.4" depart="11.60" departLane="entry_0" departPos="199.90" departSpeed="34.89" departDelay="0.00" arrival="153.20" arrivalLane="e0_0" arrivalPos="4800.00" arrivalSpeed="34.87" duration="141.60" routeLength="4800.10" waitingTime="0.00" waitingCount="0" stopTime="0.00" timeLoss="3.91" rerouteNo="0" devices="tripinfo_CVToC.4 routing_CVToC.4 ssm_CVToC.4 toc_CVToC.4 driverstateCVToC.4" vType="vehLVOS660" speedFactor="0.97" vaporized=""/>
    <tripinfo id="CAVToC.1" depart="14.70" departLane="entry_1" departPos="199.90" departSpeed="36.51" departDelay="0.00" arrival="153.80" arrivalLane="e0_1" arrivalPos="4800.00" arrivalSpeed="35.35" duration="139.10" routeLength="4800.10" waitingTime="0.00" waitingCount="0" stopTime="0.00" timeLoss="16.50" rerouteNo="0" devices="tripinfo_CAVToC.1 routing_CAVToC.1 ssm_CAVToC.1 toc_CAVToC.1 driverstateCAVToC.1" vType="vehLVOS358" speedFactor="1.08" vaporized=""/>
    <tripinfo id="CAVToC.0" depart="11.90" departLane="entry_0" departPos="138.90" departSpeed="35.02" departDelay="0.00" arrival="155.80" arrivalLane="e0_0" arrivalPos="4800.00" arrivalSpeed="35.13" duration="143.90" routeLength="4861.10" waitingTime="0.00" waitingCount="0" stopTime="0.00" timeLoss="5.64" rerouteNo="0" devices="tripinfo_CAVToC.0 routing_CAVToC.0 ssm_CAVToC.0 toc_CAVToC.0 driverstateCAVToC.0" vType="vehLVOS675" speedFactor="0.97" vaporized=""/>
    <tripinfo id="LV.0" depart="16.80" departLane="entry_1" departPos="37.60" departSpeed="43.56" departDelay="0.00" arrival="155.80" arrivalLane="e0_1" arrivalPos="4800.00" arrivalSpeed="37.45" duration="139.00" routeLength="4962.40" waitingTime="0.00" waitingCount="0" stopTime="0.00" timeLoss="25.08" rerouteNo="0" devices="tripinfo_LV.0 routing_LV.0 ssm_LV.0" vType="vehLVOS518" speedFactor="1.21" vaporized=""/>
    <tripinfo id="CVToC.5" depart="12.80" departLane="entry_0" departPos="99.57" departSpeed="34.90" departDelay="0.00" arrival="157.00" arrivalLane="e0_0" arrivalPos="4800.00" arrivalSpeed="34.90" duration="144.20" routeLength="4900.43" waitingTime="0.00" waitingCount="0" stopTime="0.00" timeLoss="3.79" rerouteNo="0" devices="tripinfo_CVToC.5 routing_CVToC.5 ssm_CVToC.5 toc_CVToC.5 driverstateCVToC.5" vType="vehLVOS939" speedFactor="0.97" vaporized=""/>
    <tripinfo id="CAVToC.3" depart="15.60" departLane="entry_1" departPos="157.85" departSpeed="34.09" departDelay="0.00" arrival="161.00" arrivalLane="e0_0" arrivalPos="4800.00" arrivalSpeed="34.07" duration="145.40" routeLength="4842.15" waitingTime="0.00" waitingCount="0" stopTime="0.00" timeLoss="3.28" rerouteNo="0" devices="tripinfo_CAVToC.3 routing_CAVToC.3 ssm_CAVToC.3 toc_CAVToC.3 driverstateCAVToC.3" vType="vehLVOS705" speedFactor="0.94" vaporized=""/>
    <tripinfo id="CAVToC.2" depart="15.00" departLane="entry_0" departPos="86.03" departSpeed="35.69" departDelay="0.00" arrival="162.90" arrivalLane="e0_0" arrivalPos="4800.00" arrivalSpeed="37.29" duration="147.90" routeLength="4913.97" waitingTime="0.00" waitingCount="0" stopTime="0.00" timeLoss="29.65" rerouteNo="0" devices="tripinfo_CAVToC.2 routing_CAVToC.2 ssm_CAVToC.2 toc_CAVToC.2 driverstateCAVToC.2" vType="vehLVOS879" speedFactor="1.15" vaporized=""/>
    <tripinfo id="CAVToC.6" depart="21.70" departLane="entry_1" departPos="51.33" departSpeed="29.85" departDelay="0.00" arrival="166.70" arrivalLane="e0_1" arrivalPos="4800.00" arrivalSpeed="38.99" duration="145.00" routeLength="4948.67" waitingTime="0.00" waitingCount="0" stopTime="0.00" timeLoss="18.08" rerouteNo="0" devices="tripinfo_CAVToC.6 routing_CAVToC.6 ssm_CAVToC.6 toc_CAVToC.6 driverstateCAVToC.6" vType="vehLVOS533" speedFactor="1.08" vaporized=""/>
    <tripinfo id="CAVToC.4" depart="17.20" departLane="entry_0" departPos="94.89" departSpeed="33.23" departDelay="0.00" arrival="168.40" arrivalLane="e0_0" arrivalPos="4800.00" arrivalSpeed="33.20" duration="151.20" routeLength="4905.11" waitingTime="0.00" waitingCount="0" stopTime="0.00" timeLoss="3.55" rerouteNo="0" devices="tripinfo_CAVToC.4 routing_CAVToC.4 ssm_CAVToC.4 toc_CAVToC.4 driverstateCAVToC.4" vType="vehLVOS162" speedFactor="0.92" vaporized=""/>
    <tripinfo id="CVToC.7" depart="24.60" departLane="entry_1" departPos="0.88" departSpeed="32.95" departDelay="0.10" arrival="169.20" arrivalLane="e0_1" arrivalPos="4800.00" arrivalSpeed="41.08" duration="144.60" routeLength="4999.12" waitingTime="0.00" waitingCount="0" stopTime="0.00" timeLoss="22.96" rerouteNo="0" devices="tripinfo_CVToC.7 routing_CVToC.7 ssm_CVToC.7 toc_CVToC.7 driverstateCVToC.7" vType="vehLVOS534" speedFactor="1.14" vaporized=""/>
    <tripinfo id="CVToC.8" depart="27.70" departLane="entry_1" departPos="21.52" departSpeed="32.16" departDelay="0.00" arrival="175.40" arrivalLane="e0_1" arrivalPos="4800.00" arrivalSpeed="36.87" duration="147.70" routeLength="4978.48" waitingTime="0.00" waitingCount="0" stopTime="0.00" timeLoss="12.82" rerouteNo="0" devices="tripinfo_CVToC.8 routing_CVToC.8 ssm_CVToC.8 toc_CVToC.8 driverstateCVToC.8" vType="vehLVOS255" speedFactor="1.02" vaporized=""/>
    <tripinfo id="LV.3" depart="22.60" departLane="entry_1" departPos="20.78" departSpeed="33.01" departDelay="0.00" arrival="177.40" arrivalLane="e0_0" arrivalPos="4800.00" arrivalSpeed="33.00" duration="154.80" routeLength="4979.22" waitingTime="0.00" waitingCount="0" stopTime="0.00" timeLoss="3.87" rerouteNo="0" devices="tripinfo_LV.3 routing_LV.3 ssm_LV.3" vType="vehLVOS870" speedFactor="0.91" vaporized=""/>
    <tripinfo id="CAVToC.10" depart="32.20" departLane="entry_1" departPos="2.95" departSpeed="32.18" departDelay="2.40" arrival="183.40" arrivalLane="e0_1" arrivalPos="4800.00" arrivalSpeed="38.83" duration="151.20" routeLength="4997.05" waitingTime="0.00" waitingCount="0" stopTime="0.00" timeLoss="22.63" rerouteNo="0" devices="tripinfo_CAVToC.10 routing_CAVToC.10 ssm_CAVToC.10 toc_CAVToC.10 driverstateCAVToC.10" vType="vehLVOS998" speedFactor="1.08" vaporized=""/>
    <tripinfo id="CVToC.9" depart="29.40" departLane="entry_1" departPos="1.44" departSpeed="31.95" departDelay="0.00" arrival="184.10" arrivalLane="e0_0" arrivalPos="4800.00" arrivalSpeed="33.84" duration="154.70" routeLength="4998.56" waitingTime="0.00" waitingCount="0" stopTime="0.00" timeLoss="7.02" rerouteNo="0" devices="tripinfo_CVToC.9 routing_CVToC.9 ssm_CVToC.9 toc_CVToC.9 driverstateCVToC.9" vType="vehLVOS158" speedFactor="0.94" vaporized=""/>
    <tripinfo id="CVToC.13" depart="37.10" departLane="entry_1" departPos="1.03" departSpeed="32.78" departDelay="1.40" arrival="185.20" arrivalLane="e0_1" arrivalPos="4800.00" arrivalSpeed="37.24" duration="148.10" routeLength="4998.97" waitingTime="0.00" waitingCount="0" stopTime="0.00" timeLoss="14.17" rerouteNo="0" devices="tripinfo_CVToC.13 routing_CVToC.13 ssm_CVToC.13 toc_CVToC.13 driverstateCVToC.13" vType="vehLVOS537" speedFactor="1.03" vaporized=""/>
    <tripinfo id="LV.2" depart="20.40" departLane="entry_1" departPos="101.90" departSpeed="29.31" departDelay="0.00" arrival="188.40" arrivalLane="e0_0" arrivalPos="4800.00" arrivalSpeed="29.21" duration="168.00" routeLength="4898.10" waitingTime="0.00" waitingCount="0" stopTime="0.00" timeLoss="0.84" rerouteNo="0" devices="tripinfo_LV.2 routing_LV.2 ssm_LV.2" vType="vehLVOS419" speedFactor="0.81" vaporized=""/>
    <tripinfo id="CVToC.11" depart="40.40" departLane="entry_1" departPos="18.00" departSpeed="32.55" departDelay="8.20" arrival="188.90" arrivalLane="e0_1" arrivalPos="4800.00" arrivalSpeed="41.32" duration="148.50" routeLength="4982.00" waitingTime="0.00" waitingCount="0" stopTime="0.00" timeLoss="28.01" rerouteNo="0" devices="tripinfo_CVToC.11 routing_CVToC.11 ssm_CVToC.11 toc_CVToC.11 driverstateCVToC.11" vType="vehLVOS162" speedFactor="1.15" vaporized=""/>
    <tripinfo id="CVToC.12" depart="34.50" departLane="entry_1" departPos="0.26" departSpeed="32.44" departDelay="0.30" arrival="189.50" arrivalLane="e0_0" arrivalPos="4800.00" arrivalSpeed="31.70" duration="155.00" routeLength="4999.74" waitingTime="0.00" waitingCount="0" stopTime="0.00" timeLoss="14.69" rerouteNo="0" devices="tripinfo_CVToC.12 routing_CVToC.12 ssm_CVToC.12 toc_CVToC.12 driverstateCVToC.12" vType="vehLVOS297" speedFactor="0.99" vaporized=""/>
    <tripinfo id="CAVToC.14" depart="43.10" departLane="entry_1" departPos="27.07" departSpeed="31.73" departDelay="6.60" arrival="192.20" arrivalLane="e0_1" arrivalPos="4800.00" arrivalSpeed="34.94" duration="149.10" routeLength="4972.93" waitingTime="0.00" waitingCount="0" stopTime="0.00" timeLoss="6.77" rerouteNo="0" devices="tripinfo_CAVToC.14 routing_CAVToC.14 ssm_CAVToC.14 toc_CAVToC.14 driverstateCAVToC.14" vType="vehLVOS903" speedFactor="0.97" vaporized=""/>
    <tripinfo id="CVToC.15" depart="44.80" departLane="entry_1" departPos="2.71" departSpeed="31.70" departDelay="5.60" arrival="193.40" arrivalLane="e0_0" arrivalPos="4800.00" arrivalSpeed="35.89" duration="148.60" routeLength="4997.29" waitingTime="0.00" waitingCount="0" stopTime="0.00" timeLoss="9.33" rerouteNo="0" devices="tripinfo_CVToC.15 routing_CVToC.15 ssm_CVToC.15 toc_CVToC.15 driverstateCVToC.15" vType="vehLVOS96" speedFactor="0.99" vaporized=""/>
    <tripinfo id="CVToC.17" depart="49.90" departLane="entry_1" departPos="3.42" departSpeed="31.16" departDelay="8.00" arrival="198.40" arrivalLane="e0_1" arrivalPos="4800.00" arrivalSpeed="38.29" duration="148.50" routeLength="4996.58" waitingTime="0.00" waitingCount="0" stopTime="0.00" timeLoss="18.23" rerouteNo="0" devices="tripinfo_CVToC.17 routing_CVToC.17 ssm_CVToC.17 toc_CVToC.17 driverstateCVToC.17" vType="vehLVOS265" speedFactor="1.06" vaporized=""/>
    <tripinfo id="CVToC.16" depart="47.60" departLane="entry_1" departPos="17.19" departSpeed="31.01" departDelay="7.20" arrival="198.90" arrivalLane="e0_0" arrivalPos="4800.00" arrivalSpeed="33.81" duration="151.30" routeLength="4982.81" waitingTime="0.00" waitingCount="0" stopTime="0.00" timeLoss="4.13" rerouteNo="0" devices="tripinfo_CVToC.16 routing_CVToC.16 ssm_CVToC.16 toc_CVToC.16 driverstateCVToC.16" vType="vehLVOS319" speedFactor="0.94" vaporized=""/>
    <tripinfo id="LV.4" depart="54.00" departLane="entry_1" departPos="0.36" departSpeed="36.28" departDelay="23.30" arrival="201.10" arrivalLane="e0_1" arrivalPos="4800.00" arrivalSpeed="36.19" duration="147.10" routeLength="4999.64" waitingTime="0.00" waitingCount="0" stopTime="0.00" timeLoss="9.28" rerouteNo="0" devices="tripinfo_LV.4 routing_LV.4 ssm_LV.4" vType="vehLVOS504" speedFactor="1.00" vaporized=""/>
    <tripinfo id="CAVToC.16" depart="56.50" departLane="entry_1" departPos="14.83" departSpeed="34.39" departDelay="7.40" arrival="203.90" arrivalLane="e0_0" arrivalPos="4800.00" arrivalSpeed="34.23" duration="147.40" routeLength="4985.17" waitingTime="0.00" waitingCount="0" stopTime="0.00" timeLoss="2.42" rerouteNo="0" devices="tripinfo_CAVToC.16 routing_CAVToC.16 ssm_CAVToC.16 toc_CAVToC.16 driverstateCAVToC.16" vType="vehLVOS137" speedFactor="0.95" vaporized=""/>
    <tripinfo id="CVToC.23" depart="58.70" departLane="entry_1" departPos="5.32" departSpeed="34.89" departDelay="5.20" arrival="204.10" arrivalLane="e0_1" arrivalPos="4800.00" arrivalSpeed="38.19" duration="145.40" routeLength="4994.68" waitingTime="0.00" waitingCount="0" stopTime="0.00" timeLoss="14.91" rerouteNo="0" devices="tripinfo_CVToC.23 routing_CVToC.23 ssm_CVToC.23 toc_CVToC.23 driverstateCVToC.23" vType="vehLVOS940" speedFactor="1.06" vaporized=""/>
    <tripinfo id="CVToC.22" depart="61.30" departLane="entry_1" departPos="9.88" departSpeed="35.43" departDelay="9.70" arrival="208.40" arrivalLane="e0_1" arrivalPos="4800.00" arrivalSpeed="41.99" duration="147.10" routeLength="4990.12" waitingTime="0.00" waitingCount="0" stopTime="0.00" timeLoss="28.22" rerouteNo="0" devices="tripinfo_CVToC.22 routing_CVToC.22 ssm_CVToC.22 toc_CVToC.22 driverstateCVToC.22" vType="vehLVOS804" speedFactor="1.16" vaporized=""/>
    <tripinfo id="LV.1" depart="18.90" departLane="entry_1" departPos="119.70" departSpeed="25.27" departDelay="0.00" arrival="212.30" arrivalLane="e0_0" arrivalPos="4800.00" arrivalSpeed="25.25" duration="193.40" routeLength="4880.30" waitingTime="0.00" waitingCount="0" stopTime="0.00" timeLoss="0.18" rerouteNo="0" devices="tripinfo_LV.1 routing_LV.1 ssm_LV.1" vType="vehLVOS909" speedFactor="0.70" vaporized=""/>
    <tripinfo id="CAVToC.5" depart="20.90" departLane="entry_0" departPos="142.52" departSpeed="30.74" departDelay="0.00" arrival="213.60" arrivalLane="e0_0" arrivalPos="4800.00" arrivalSpeed="27.21" duration="192.70" routeLength="4857.48" waitingTime="0.00" waitingCount="0" stopTime="0.00" timeLoss="43.38" rerouteNo="0" devices="tripinfo_CAVToC.5 routing_CAVToC.5 ssm_CAVToC.5 toc_CAVToC.5 driverstateCAVToC.5" vType="vehLVOS907" speedFactor="0.90" vaporized=""/>
    <tripinfo id="CAVToC.17" depart="60.20" departLane="entry_0" departPos="10.16" departSpeed="28.51" departDelay="6.50" arrival="213.70" arrivalLane="e0_1" arrivalPos="4800.00" arrivalSpeed="34.37" duration="153.50" routeLength="4989.84" waitingTime="0.00" waitingCount="0" stopTime="0.00" timeLoss="8.32" rerouteNo="0" devices="tripinfo_CAVToC.17 routing_CAVToC.17 ssm_CAVToC.17 toc_CAVToC.17 driverstateCAVToC.17" vType="vehLVOS557" speedFactor="0.95" vaporized=""/>
    <tripinfo id="CAVToC.7" depart="21.90" departLane="entry_0" departPos="77.09" departSpeed="29.82" departDelay="0.00" arrival="215.90" arrivalLane="e0_0" arrivalPos="4800.00" arrivalSpeed="26.93" duration="194.00" routeLength="4922.91" waitingTime="0.00" waitingCount="0" stopTime="0.00" timeLoss="80.62" rerouteNo="0" devices="tripinfo_CAVToC.7 routing_CAVToC.7 ssm_CAVToC.7 toc_CAVToC.7 driverstateCAVToC.7" vType="vehLVOS224" speedFactor="1.20" vaporized=""/>
    <tripinfo id="CVToC.21" depart="57.20" departLane="entry_0" departPos="0.96" departSpeed="28.33" departDelay="8.00" arrival="216.10" arrivalLane="e0_1" arrivalPos="4800.00" arrivalSpeed="34.39" duration="158.90" routeLength="4999.04" waitingTime="0.00" waitingCount="0" stopTime="0.00" timeLoss="13.93" rerouteNo="0" devices="tripinfo_CVToC.21 routing_CVToC.21 ssm_CVToC.21 toc_CVToC.21 driverstateCVToC.21" vType="vehLVOS432" speedFactor="0.96" vaporized=""/>
    <tripinfo id="CVToC.6" depart="23.20" departLane="entry_0" departPos="44.36" departSpeed="28.86" departDelay="0.10" arrival="217.00" arrivalLane="e0_0" arrivalPos="4800.00" arrivalSpeed="28.18" duration="193.80" routeLength="4955.64" waitingTime="0.00" waitingCount="0" stopTime="0.00" timeLoss="40.94" rerouteNo="0" devices="tripinfo_CVToC.6 routing_CVToC.6 ssm_CVToC.6 toc_CVToC.6 driverstateCVToC.6" vType="vehLVOS168" speedFactor="0.90" vaporized=""/>
    <tripinfo id="CVToC.20" depart="54.50" departLane="entry_0" departPos="0.98" departSpeed="27.48" departDelay="7.50" arrival="217.90" arrivalLane="e0_1" arrivalPos="4800.00" arrivalSpeed="36.57" duration="163.40" routeLength="4999.02" waitingTime="0.00" waitingCount="0" stopTime="0.00" timeLoss="26.78" rerouteNo="0" devices="tripinfo_CVToC.20 routing_CVToC.20 ssm_CVToC.20 toc_CVToC.20 driverstateCVToC.20" vType="vehLVOS82" speedFactor="1.01" vaporized=""/>
    <tripinfo id="CAVToC.8" depart="27.20" departLane="entry_0" departPos="76.91" departSpeed="25.04" departDelay="0.00" arrival="218.90" arrivalLane="e0_0" arrivalPos="4800.00" arrivalSpeed="29.68" duration="191.70" routeLength="4923.09" waitingTime="0.00" waitingCount="0" stopTime="0.00" timeLoss="43.17" rerouteNo="0" devices="tripinfo_CAVToC.8 routing_CAVToC.8 ssm_CAVToC.8 toc_CAVToC.8 driverstateCAVToC.8" vType="vehLVOS471" speedFactor="0.92" vaporized=""/>
    <tripinfo id="CVToC.19" depart="52.00" departLane="entry_0" departPos="15.25" departSpeed="26.20" departDelay="6.00" arrival="220.30" arrivalLane="e0_1" arrivalPos="4800.00" arrivalSpeed="36.71" duration="168.30" routeLength="4984.75" waitingTime="0.00" waitingCount="0" stopTime="0.00" timeLoss="32.55" rerouteNo="0" devices="tripinfo_CVToC.19 routing_CVToC.19 ssm_CVToC.19 toc_CVToC.19 driverstateCVToC.19" vType="vehLVOS443" speedFactor="1.02" vaporized=""/>
    <tripinfo id="CAVToC.9" depart="28.90" departLane="entry_0" departPos="35.95" departSpeed="25.38" departDelay="0.00" arrival="220.70" arrivalLane="e0_0" arrivalPos="4800.00" arrivalSpeed="29.16" duration="191.80" routeLength="4964.05" waitingTime="0.00" waitingCount="0" stopTime="0.00" timeLoss="62.81" rerouteNo="0" devices="tripinfo_CAVToC.9 routing_CAVToC.9 ssm_CAVToC.9 toc_CAVToC.9 driverstateCAVToC.9" vType="vehLVOS750" speedFactor="1.07" vaporized=""/>
    <tripinfo id="CAVToC.11" depart="30.80" departLane="entry_0" departPos="18.53" departSpeed="24.95" departDelay="0.20" arrival="222.60" arrivalLane="e0_0" arrivalPos="4800.00" arrivalSpeed="29.54" duration="191.80" routeLength="4981.47" waitingTime="0.00" waitingCount="0" stopTime="0.00" timeLoss="23.45" rerouteNo="0" devices="tripinfo_CAVToC.11 routing_CAVToC.11 ssm_CAVToC.11 toc_CAVToC.11 driverstateCAVToC.11" vType="vehLVOS476" speedFactor="0.82" vaporized=""/>
    <tripinfo id="CVToC.18" depart="48.40" departLane="entry_0" departPos="10.84" departSpeed="24.71" departDelay="5.10" arrival="223.20" arrivalLane="e0_1" arrivalPos="4800.00" arrivalSpeed="34.52" duration="174.80" routeLength="4989.16" waitingTime="0.00" waitingCount="0" stopTime="0.00" timeLoss="30.54" rerouteNo="0" devices="tripinfo_CVToC.18 routing_CVToC.18 ssm_CVToC.18 toc_CVToC.18 driverstateCVToC.18" vType="vehLVOS265" speedFactor="0.96" vaporized=""/>
    <tripinfo id="CVToC.10" depart="33.40" departLane="entry_0" departPos="13.99" departSpeed="25.18" departDelay="2.60" arrival="224.30" arrivalLane="e0_0" arrivalPos="4800.00" arrivalSpeed="30.07" duration="190.90" routeLength="4986.01" waitingTime="0.00" waitingCount="0" stopTime="0.00" timeLoss="25.03" rerouteNo="0" devices="tripinfo_CVToC.10 routing_CVToC.10 ssm_CVToC.10 toc_CVToC.10 driverstateCVToC.10" vType="vehLVOS735" speedFactor="0.83" vaporized=""/>
    <tripinfo id="CVToC.14" depart="45.10" departLane="entry_0" departPos="9.36" departSpeed="23.93" departDelay="6.20" arrival="224.70" arrivalLane="e0_1" arrivalPos="4800.00" arrivalSpeed="36.01" duration="179.60" routeLength="4990.64" waitingTime="0.00" waitingCount="0" stopTime="0.00" timeLoss="41.12" rerouteNo="0" devices="tripinfo_CVToC.14 routing_CVToC.14 ssm_CVToC.14 toc_CVToC.14 driverstateCVToC.14" vType="vehLVOS706" speedFactor="1.00" vaporized=""/>
    <tripinfo id="CAVToC.12" depart="36.60" departLane="entry_0" departPos="7.37" departSpeed="25.29" departDelay="4.20" arrival="228.20" arrivalLane="e0_0" arrivalPos="4800.00" arrivalSpeed="39.34" duration="191.60" routeLength="4992.63" waitingTime="0.00" waitingCount="0" stopTime="0.00" timeLoss="64.67" rerouteNo="0" devices="tripinfo_CAVToC.12 routing_CAVToC.12 ssm_CAVToC.12 toc_CAVToC.12 driverstateCAVToC.12" vType="vehLVOS472" speedFactor="1.09" vaporized=""/>
    <tripinfo id="CAVToC.15" depart="39.90" departLane="entry_0" departPos="23.64" departSpeed="23.89" departDelay="1.90" arrival="229.40" arrivalLane="e0_1" arrivalPos="4800.00" arrivalSpeed="29.81" duration="189.50" routeLength="4976.36" waitingTime="0.00" waitingCount="0" stopTime="0.00" timeLoss="22.72" rerouteNo="0" devices="tripinfo_CAVToC.15 routing_CAVToC.15 ssm_CAVToC.15 toc_CAVToC.15 driverstateCAVToC.15" vType="vehLVOS676" speedFactor="0.83" vaporized=""/>
    <tripinfo id="CAVToC.13" depart="41.30" departLane="entry_0" departPos="0.29" departSpeed="23.61" departDelay="4.90" arrival="247.10" arrivalLane="e0_0" arrivalPos="4800.00" arrivalSpeed="24.40" duration="205.80" routeLength="4999.71" waitingTime="0.00" waitingCount="0" stopTime="0.00" timeLoss="1.15" rerouteNo="0" devices="tripinfo_CAVToC.13 routing_CAVToC.13 ssm_CAVToC.13 toc_CAVToC.13 driverstateCAVToC.13" vType="vehLVOS253" speedFactor="0.68" vaporized=""/>
    <tripinfo id="LV.7" depart="61.40" departLane="entry_1" departPos="5.82" departSpeed="26.42" departDelay="5.60" arrival="250.70" arrivalLane="e0_1" arrivalPos="4800.00" arrivalSpeed="26.42" duration="189.30" routeLength="4994.18" waitingTime="0.00" waitingCount="0" stopTime="0.00" timeLoss="0.24" rerouteNo="0" devices="tripinfo_LV.7 routing_LV.7 ssm_LV.7" vType="vehLVOS24" speedFactor="0.73" vaporized=""/>
    <tripinfo id="CAVToC.18" depart="62.50" departLane="entry_0" departPos="15.77" departSpeed="28.59" departDelay="5.80" arrival="251.40" arrivalLane="e0_0" arrivalPos="4800.00" arrivalSpeed="27.92" duration="188.90" routeLength="4984.23" waitingTime="0.00" waitingCount="0" stopTime="0.00" timeLoss="14.56" rerouteNo="0" devices="tripinfo_CAVToC.18 routing_CAVToC.18 ssm_CAVToC.18 toc_CAVToC.18 driverstateCAVToC.18" vType="vehLVOS333" speedFactor="0.79" vaporized=""/>
    <tripinfo id="CAVToC.20" depart="64.30" departLane="entry_1" departPos="6.82" departSpeed="27.27" departDelay="6.60" arrival="252.80" arrivalLane="e0_1" arrivalPos="4800.00" arrivalSpeed="29.19" duration="188.50" routeLength="4993.18" waitingTime="0.00" waitingCount="0" stopTime="0.00" timeLoss="43.18" rerouteNo="0" devices="tripinfo_CAVToC.20 routing_CAVToC.20 ssm_CAVToC.20 toc_CAVToC.20 driverstateCAVToC.20" vType="vehLVOS581" speedFactor="0.95" vaporized=""/>
    <tripinfo id="CVToC.26" depart="69.60" departLane="entry_1" departPos="49.98" departSpeed="29.04" departDelay="2.70" arrival="253.90" arrivalLane="e0_1" arrivalPos="4800.00" arrivalSpeed="30.10" duration="184.30" routeLength="4950.02" waitingTime="0.00" waitingCount="0" stopTime="0.00" timeLoss="75.73" rerouteNo="0" devices="tripinfo_CVToC.26 routing_CVToC.26 ssm_CVToC.26 toc_CVToC.26 driverstateCVToC.26" vType="vehLVOS525" speedFactor="1.26" vaporized=""/>
    <tripinfo id="CAVToC.19" depart="65.80" departLane="entry_0" departPos="12.21" departSpeed="27.93" departDelay="8.90" arrival="255.90" arrivalLane="e0_0" arrivalPos="4800.00" arrivalSpeed="30.27" duration="190.10" routeLength="4987.79" waitingTime="0.00" waitingCount="0" stopTime="0.00" timeLoss="66.66" rerouteNo="0" devices="tripinfo_CAVToC.19 routing_CAVToC.19 ssm_CAVToC.19 toc_CAVToC.19 driverstateCAVToC.19" vType="vehLVOS479" speedFactor="1.12" vaporized=""/>
    <tripinfo id="CVToC.24" depart="68.70" departLane="entry_0" departPos="2.58" departSpeed="28.41" departDelay="9.20" arrival="257.80" arrivalLane="e0_1" arrivalPos="4800.00" arrivalSpeed="33.69" duration="189.10" routeLength="4997.42" waitingTime="0.00" waitingCount="0" stopTime="0.00" timeLoss="60.49" rerouteNo="0" devices="tripinfo_CVToC.24 routing_CVToC.24 ssm_CVToC.24 toc_CVToC.24 driverstateCVToC.24" vType="vehLVOS309" speedFactor="1.08" vaporized=""/>
    <tripinfo id="CAVToC.22" depart="71.10" departLane="entry_1" departPos="2.38" departSpeed="30.22" departDelay="0.30" arrival="258.80" arrivalLane="e0_0" arrivalPos="4800.00" arrivalSpeed="34.06" duration="187.70" routeLength="4997.62" waitingTime="0.00" waitingCount="0" stopTime="0.00" timeLoss="65.64" rerouteNo="0" devices="tripinfo_CAVToC.22 routing_CAVToC.22 ssm_CAVToC.22 toc_CAVToC.22 driverstateCAVToC.22" vType="vehLVOS889" speedFactor="1.13" vaporized=""/>
    <tripinfo id="CAVToC.21" depart="74.30" departLane="entry_1" departPos="5.48" departSpeed="30.66" departDelay="4.50" arrival="260.80" arrivalLane="e0_1" arrivalPos="4800.00" arrivalSpeed="32.72" duration="186.50" routeLength="4994.52" waitingTime="0.00" waitingCount="0" stopTime="0.00" timeLoss="68.26" rerouteNo="0" devices="tripinfo_CAVToC.21 routing_CAVToC.21 ssm_CAVToC.21 toc_CAVToC.21 driverstateCAVToC.21" vType="vehLVOS972" speedFactor="1.17" vaporized=""/>
    <tripinfo id="CVToC.25" depart="74.10" departLane="entry_0" departPos="68.61" departSpeed="25.80" departDelay="8.30" arrival="261.00" arrivalLane="e0_0" arrivalPos="4800.00" arrivalSpeed="33.10" duration="186.90" routeLength="4931.39" waitingTime="0.00" waitingCount="0" stopTime="0.00" timeLoss="50.88" rerouteNo="0" devices="tripinfo_CVToC.25 routing_CVToC.25 ssm_CVToC.25 toc_CVToC.25 driverstateCVToC.25" vType="vehLVOS494" speedFactor="1.00" vaporized=""/>
    <tripinfo id="CAVToC.24" depart="77.70" departLane="entry_1" departPos="29.08" departSpeed="30.89" departDelay="4.10" arrival="261.90" arrivalLane="e0_1" arrivalPos="4800.00" arrivalSpeed="33.14" duration="184.20" routeLength="4970.92" waitingTime="0.00" waitingCount="0" stopTime="0.00" timeLoss="48.35" rerouteNo="0" devices="tripinfo_CAVToC.24 routing_CAVToC.24 ssm_CAVToC.24 toc_CAVToC.24 driverstateCAVToC.24" vType="vehLVOS217" speedFactor="1.01" vaporized=""/>
    <tripinfo id="LV.6" depart="81.00" departLane="entry_1" departPos="0.31" departSpeed="41.50" departDelay="25.30" arrival="262.80" arrivalLane="e0_1" arrivalPos="4800.00" arrivalSpeed="34.40" duration="181.80" routeLength="4999.69" waitingTime="0.00" waitingCount="0" stopTime="0.00" timeLoss="61.31" rerouteNo="0" devices="tripinfo_LV.6 routing_LV.6 ssm_LV.6" vType="vehLVOS507" speedFactor="1.15" vaporized=""/>
    <tripinfo id="LV.5" depart="82.40" departLane="entry_1" departPos="1.21" departSpeed="41.37" departDelay="48.60" arrival="264.00" arrivalLane="e0_1" arrivalPos="4800.00" arrivalSpeed="34.06" duration="181.60" routeLength="4998.79" waitingTime="0.00" waitingCount="0" stopTime="0.00" timeLoss="60.74" rerouteNo="0" devices="tripinfo_LV.5 routing_LV.5 ssm_LV.5" vType="vehLVOS315" speedFactor="1.15" vaporized=""/>
    <tripinfo id="CAVToC.23" depart="75.20" departLane="entry_0" departPos="23.32" departSpeed="26.16" departDelay="3.70" arrival="265.80" arrivalLane="e0_0" arrivalPos="4800.00" arrivalSpeed="32.18" duration="190.60" routeLength="4976.68" waitingTime="0.00" waitingCount="0" stopTime="0.00" timeLoss="35.96" rerouteNo="0" devices="tripinfo_CAVToC.23 routing_CAVToC.23 ssm_CAVToC.23 toc_CAVToC.23 driverstateCAVToC.23" vType="vehLVOS570" speedFactor="0.89" vaporized=""/>
    <tripinfo id="CAVToC.26" depart="84.20" departLane="entry_1" departPos="2.98" departSpeed="33.29" departDelay="8.10" arrival="266.90" arrivalLane="e0_1" arrivalPos="4800.00" arrivalSpeed="33.29" duration="182.70" routeLength="4997.02" waitingTime="0.00" waitingCount="0" stopTime="0.00" timeLoss="32.57" rerouteNo="0" devices="tripinfo_CAVToC.26 routing_CAVToC.26 ssm_CAVToC.26 toc_CAVToC.26 driverstateCAVToC.26" vType="vehLVOS636" speedFactor="0.92" vaporized=""/>