<?xml version="1.0" encoding="UTF-8"?>

<!-- generated on Wed Jun 24 10:26:28 2020 by Eclipse SUMO Version v1_6_0+0553-a03471b
<configuration xmlns:xsi="http://www.w3.org/2001/XMLSchema-instance" xsi:noNamespaceSchemaLocation="http://sumo.dlr.de/xsd/sumoConfiguration.xsd">

    <input>
        <net-file value="scenario/UC5_1.net.xml"/>
        <route-files value="scenario/routes_trafficMix_0_trafficDemand_1_driverBehaviour_OS_seed_0.xml"/>
        <additional-files value="scenario/additionalsOutput_trafficMix_0_trafficDemand_1_driverBehaviour_OS_seed_0.xml,scenario/vTypesCAVToC_OS.add.xml,scenario/vTypesCVToC_OS.add.xml,scenario/vTypesLV_OS.add.xml,scenario/shapes.add.xml,scenario/view.add.xml"/>
    </input>

    <output>
        <tripinfo-output value="/home/noul_ar/workspace/tor-distribution/outputs/simulations/dnq_dc_seed_30.zip_20200624-101517/tripinfo_2.xml"/>
    </output>

    <time>
        <step-length value="0.1"/>
    </time>

    <processing>
        <step-method.ballistic value="true"/>
        <ignore-route-errors value="true"/>
        <lanechange.duration value="2.5"/>
    </processing>

    <report>
        <no-step-log value="true"/>
    </report>

    <toc_device>
        <device.toc.ogNewTimeHeadway value="100"/>
        <device.toc.ogNewSpaceHeadway value="5"/>
        <device.toc.ogMaxDecel value="1"/>
        <device.toc.ogChangeRate value="1"/>
    </toc_device>

    <traci_server>
        <remote-port value="57227"/>
    </traci_server>

    <random_number>
        <seed value="1026"/>
    </random_number>

    <gui_only>
        <tracker-interval value="0.1"/>
    </gui_only>

</configuration>
-->

<tripinfos xmlns:xsi="http://www.w3.org/2001/XMLSchema-instance" xsi:noNamespaceSchemaLocation="http://sumo.dlr.de/xsd/tripinfo_file.xsd">
    <tripinfo id="CAVToC.0" depart="2.30" departLane="entry_1" departPos="199.90" departSpeed="37.60" departDelay="0.00" arrival="130.10" arrivalLane="e0_1" arrivalPos="4800.00" arrivalSpeed="37.57" duration="127.80" routeLength="4800.10" waitingTime="0.00" waitingCount="0" stopTime="0.00" timeLoss="0.15" rerouteNo="0" devices="tripinfo_CAVToC.0 routing_CAVToC.0 ssm_CAVToC.0 toc_CAVToC.0 driverstateCAVToC.0" vType="vehLVOS186" speedFactor="1.04" vaporized=""/>
    <tripinfo id="CVToC.1" depart="3.40" departLane="entry_0" departPos="199.90" departSpeed="40.66" departDelay="0.00" arrival="131.20" arrivalLane="e0_0" arrivalPos="4800.00" arrivalSpeed="39.50" duration="127.80" routeLength="4800.10" waitingTime="0.00" waitingCount="0" stopTime="0.00" timeLoss="9.65" rerouteNo="0" devices="tripinfo_CVToC.1 routing_CVToC.1 ssm_CVToC.1 toc_CVToC.1 driverstateCVToC.1" vType="vehLVOS82" speedFactor="1.13" vaporized=""/>
    <tripinfo id="CVToC.4" depart="9.60" departLane="entry_1" departPos="96.16" departSpeed="36.68" departDelay="0.20" arrival="134.80" arrivalLane="e0_1" arrivalPos="4800.00" arrivalSpeed="40.43" duration="125.20" routeLength="4903.84" waitingTime="0.00" waitingCount="0" stopTime="0.00" timeLoss="4.06" rerouteNo="0" devices="tripinfo_CVToC.4 routing_CVToC.4 ssm_CVToC.4 toc_CVToC.4 driverstateCVToC.4" vType="vehLVOS294" speedFactor="1.12" vaporized=""/>
    <tripinfo id="LV.2" depart="11.90" departLane="entry_1" departPos="6.42" departSpeed="45.61" departDelay="1.90" arrival="136.40" arrivalLane="e0_1" arrivalPos="4800.00" arrivalSpeed="43.99" duration="124.50" routeLength="4993.58" waitingTime="0.00" waitingCount="0" stopTime="0.00" timeLoss="14.98" rerouteNo="0" devices="tripinfo_LV.2 routing_LV.2 ssm_LV.2" vType="vehLVOS150" speedFactor="1.26" vaporized=""/>
    <tripinfo id="CVToC.3" depart="4.90" departLane="entry_1" departPos="134.03" departSpeed="32.05" departDelay="0.00" arrival="137.30" arrivalLane="e0_0" arrivalPos="4800.00" arrivalSpeed="36.92" duration="132.40" routeLength="4865.97" waitingTime="0.00" waitingCount="0" stopTime="0.00" timeLoss="0.94" rerouteNo="0" devices="tripinfo_CVToC.3 routing_CVToC.3 ssm_CVToC.3 toc_CVToC.3 driverstateCVToC.3" vType="vehLVOS366" speedFactor="1.03" vaporized=""/>
    <tripinfo id="LV.0" depart="6.70" departLane="entry_1" departPos="71.92" departSpeed="36.64" departDelay="0.00" arrival="141.30" arrivalLane="e0_0" arrivalPos="4800.00" arrivalSpeed="36.62" duration="134.60" routeLength="4928.08" waitingTime="0.00" waitingCount="0" stopTime="0.00" timeLoss="0.04" rerouteNo="0" devices="tripinfo_LV.0 routing_LV.0 ssm_LV.0" vType="vehLVOS214" speedFactor="1.01" vaporized=""/>
    <tripinfo id="LV.1" depart="7.50" departLane="entry_0" departPos="24.62" departSpeed="38.64" departDelay="0.00" arrival="142.10" arrivalLane="e0_1" arrivalPos="4800.00" arrivalSpeed="38.61" duration="134.60" routeLength="4975.38" waitingTime="0.00" waitingCount="0" stopTime="0.00" timeLoss="5.78" rerouteNo="0" devices="tripinfo_LV.1 routing_LV.1 ssm_LV.1" vType="vehLVOS626" speedFactor="1.07" vaporized=""/>
    <tripinfo id="CAVToC.4" depart="16.20" departLane="entry_1" departPos="78.86" departSpeed="36.91" departDelay="0.00" arrival="145.90" arrivalLane="e0_1" arrivalPos="4800.00" arrivalSpeed="42.24" duration="129.70" routeLength="4921.14" waitingTime="0.00" waitingCount="0" stopTime="0.00" timeLoss="13.25" rerouteNo="0" devices="tripinfo_CAVToC.4 routing_CAVToC.4 ssm_CAVToC.4 toc_CAVToC.4 driverstateCAVToC.4" vType="vehLVOS392" speedFactor="1.17" vaporized=""/>
    <tripinfo id="CAVToC.1" depart="5.20" departLane="entry_0" departPos="100.96" departSpeed="36.79" departDelay="0.00" arrival="147.60" arrivalLane="e0_1" arrivalPos="4800.00" arrivalSpeed="41.34" duration="142.40" routeLength="4899.04" waitingTime="0.00" waitingCount="0" stopTime="0.00" timeLoss="23.94" rerouteNo="0" devices="tripinfo_CAVToC.1 routing_CAVToC.1 ssm_CAVToC.1 toc_CAVToC.1 driverstateCAVToC.1" vType="vehLVOS909" speedFactor="1.15" vaporized=""/>
    <tripinfo id="LV.3" depart="12.90" departLane="entry_1" departPos="44.06" departSpeed="36.68" departDelay="0.00" arrival="148.30" arrivalLane="e0_0" arrivalPos="4800.00" arrivalSpeed="36.64" duration="135.40" routeLength="4955.94" waitingTime="0.00" waitingCount="0" stopTime="0.00" timeLoss="0.22" rerouteNo="0" devices="tripinfo_LV.3 routing_LV.3 ssm_LV.3" vType="vehLVOS711" speedFactor="1.02" vaporized=""/>
    <tripinfo id="CAVToC.5" depart="16.60" departLane="entry_1" departPos="0.09" departSpeed="36.92" departDelay="0.10" arrival="151.20" arrivalLane="e0_1" arrivalPos="4800.00" arrivalSpeed="42.25" duration="134.60" routeLength="4999.91" waitingTime="0.00" waitingCount="0" stopTime="0.00" timeLoss="16.39" rerouteNo="0" devices="tripinfo_CAVToC.5 routing_CAVToC.5 ssm_CAVToC.5 toc_CAVToC.5 driverstateCAVToC.5" vType="vehLVOS507" speedFactor="1.17" vaporized=""/>
    <tripinfo id="CAVToC.6" depart="19.70" departLane="entry_1" departPos="24.84" departSpeed="36.64" departDelay="0.00" arrival="157.30" arrivalLane="e0_1" arrivalPos="4800.00" arrivalSpeed="40.10" duration="137.60" routeLength="4975.16" waitingTime="0.00" waitingCount="0" stopTime="0.00" timeLoss="13.74" rerouteNo="0" devices="tripinfo_CAVToC.6 routing_CAVToC.6 ssm_CAVToC.6 toc_CAVToC.6 driverstateCAVToC.6" vType="vehLVOS734" speedFactor="1.11" vaporized=""/>
    <tripinfo id="CVToC.0" depart="2.80" departLane="entry_1" departPos="150.81" departSpeed="31.43" departDelay="0.00" arrival="157.40" arrivalLane="e0_0" arrivalPos="4800.00" arrivalSpeed="31.40" duration="154.60" routeLength="4849.19" waitingTime="0.00" waitingCount="0" stopTime="0.00" timeLoss="0.23" rerouteNo="0" devices="tripinfo_CVToC.0 routing_CVToC.0 ssm_CVToC.0 toc_CVToC.0 driverstateCVToC.0" vType="vehLVOS285" speedFactor="0.87" vaporized=""/>
    <tripinfo id="CVToC.8" depart="21.90" departLane="entry_1" departPos="9.34" departSpeed="37.33" departDelay="0.70" arrival="158.30" arrivalLane="e0_1" arrivalPos="4800.00" arrivalSpeed="42.19" duration="136.40" routeLength="4990.66" waitingTime="0.00" waitingCount="0" stopTime="0.00" timeLoss="26.86" rerouteNo="0" devices="tripinfo_CVToC.8 routing_CVToC.8 ssm_CVToC.8 toc_CVToC.8 driverstateCVToC.8" vType="vehLVOS266" speedFactor="1.26" vaporized=""/>
    <tripinfo id="CVToC.2" depart="4.40" departLane="entry_0" departPos="160.40" departSpeed="38.08" departDelay="0.00" arrival="158.60" arrivalLane="e0_0" arrivalPos="4800.00" arrivalSpeed="33.15" duration="154.20" routeLength="4839.60" waitingTime="0.00" waitingCount="0" stopTime="0.00" timeLoss="27.06" rerouteNo="0" devices="tripinfo_CVToC.2 routing_CVToC.2 ssm_CVToC.2 toc_CVToC.2 driverstateCVToC.2" vType="vehLVOS145" speedFactor="1.05" vaporized=""/>
    <tripinfo id="LV.4" depart="17.10" departLane="entry_0" departPos="137.07" departSpeed="34.53" departDelay="0.00" arrival="160.30" arrivalLane="e0_0" arrivalPos="4800.00" arrivalSpeed="34.41" duration="143.20" routeLength="4862.93" waitingTime="0.00" waitingCount="0" stopTime="0.00" timeLoss="2.31" rerouteNo="0" devices="tripinfo_LV.4 routing_LV.4 ssm_LV.4" vType="vehLVOS44" speedFactor="0.96" vaporized=""/>
    <tripinfo id="LV.5" depart="23.30" departLane="entry_1" departPos="16.16" departSpeed="37.00" departDelay="0.20" arrival="164.50" arrivalLane="e0_1" arrivalPos="4800.00" arrivalSpeed="36.99" duration="141.20" routeLength="4983.84" waitingTime="0.00" waitingCount="0" stopTime="0.00" timeLoss="6.46" rerouteNo="0" devices="tripinfo_LV.5 routing_LV.5 ssm_LV.5" vType="vehLVOS671" speedFactor="1.02" vaporized=""/>
    <tripinfo id="CAVToC.2" depart="8.70" departLane="entry_0" departPos="5.36" departSpeed="32.19" departDelay="0.00" arrival="165.60" arrivalLane="e0_0" arrivalPos="4800.00" arrivalSpeed="32.09" duration="156.90" routeLength="4994.64" waitingTime="0.00" waitingCount="0" stopTime="0.00" timeLoss="1.64" rerouteNo="0" devices="tripinfo_CAVToC.2 routing_CAVToC.2 ssm_CAVToC.2 toc_CAVToC.2 driverstateCAVToC.2" vType="vehLVOS297" speedFactor="0.89" vaporized=""/>
    <tripinfo id="CAVToC.3" depart="11.10" departLane="entry_0" departPos="4.71" departSpeed="32.83" departDelay="0.50" arrival="167.00" arrivalLane="e0_1" arrivalPos="4800.00" arrivalSpeed="37.61" duration="155.90" routeLength="4995.29" waitingTime="0.00" waitingCount="0" stopTime="0.00" timeLoss="23.08" rerouteNo="0" devices="tripinfo_CAVToC.3 routing_CAVToC.3 ssm_CAVToC.3 toc_CAVToC.3 driverstateCAVToC.3" vType="vehLVOS164" speedFactor="1.04" vaporized=""/>
    <tripinfo id="CVToC.5" depart="17.80" departLane="entry_0" departPos="87.74" departSpeed="34.15" departDelay="0.30" arrival="169.60" arrivalLane="e0_0" arrivalPos="4800.00" arrivalSpeed="34.68" duration="151.80" routeLength="4912.26" waitingTime="0.00" waitingCount="0" stopTime="0.00" timeLoss="10.11" rerouteNo="0" devices="tripinfo_CVToC.5 routing_CVToC.5 ssm_CVToC.5 toc_CVToC.5 driverstateCVToC.5" vType="vehLVOS17" speedFactor="0.96" vaporized=""/>
    <tripinfo id="LV.6" depart="28.70" departLane="entry_1" departPos="4.36" departSpeed="38.89" departDelay="3.50" arrival="174.50" arrivalLane="e0_1" arrivalPos="4800.00" arrivalSpeed="38.86" duration="145.80" routeLength="4995.64" waitingTime="0.00" waitingCount="0" stopTime="0.00" timeLoss="17.25" rerouteNo="0" devices="tripinfo_LV.6 routing_LV.6 ssm_LV.6" vType="vehLVOS829" speedFactor="1.08" vaporized=""/>
    <tripinfo id="CAVToC.7" depart="25.70" departLane="entry_1" departPos="35.98" departSpeed="33.30" departDelay="0.10" arrival="175.90" arrivalLane="e0_0" arrivalPos="4800.00" arrivalSpeed="33.26" duration="150.20" routeLength="4964.02" waitingTime="0.00" waitingCount="0" stopTime="0.00" timeLoss="1.08" rerouteNo="0" devices="tripinfo_CAVToC.7 routing_CAVToC.7 ssm_CAVToC.7 toc_CAVToC.7 driverstateCAVToC.7" vType="vehLVOS217" speedFactor="0.92" vaporized=""/>
    <tripinfo id="CAVToC.10" depart="31.70" departLane="entry_1" departPos="47.76" departSpeed="35.16" departDelay="0.10" arrival="177.50" arrivalLane="e0_1" arrivalPos="4800.00" arrivalSpeed="35.16" duration="145.80" routeLength="4952.24" waitingTime="0.00" waitingCount="0" stopTime="0.00" timeLoss="4.88" rerouteNo="0" devices="tripinfo_CAVToC.10 routing_CAVToC.10 ssm_CAVToC.10 toc_CAVToC.10 driverstateCAVToC.10" vType="vehLVOS775" speedFactor="0.97" vaporized=""/>
    <tripinfo id="CAVToC.11" depart="33.50" departLane="entry_1" departPos="36.28" departSpeed="35.30" departDelay="0.00" arrival="178.40" arrivalLane="e0_1" arrivalPos="4800.00" arrivalSpeed="35.53" duration="144.90" routeLength="4963.72" waitingTime="0.00" waitingCount="0" stopTime="0.00" timeLoss="5.11" rerouteNo="0" devices="tripinfo_CAVToC.11 routing_CAVToC.11 ssm_CAVToC.11 toc_CAVToC.11 driverstateCAVToC.11" vType="vehLVOS860" speedFactor="0.98" vaporized=""/>
    <tripinfo id="CVToC.6" depart="18.40" departLane="entry_0" departPos="44.30" departSpeed="30.79" departDelay="0.10" arrival="180.10" arrivalLane="e0_0" arrivalPos="4800.00" arrivalSpeed="30.69" duration="161.70" routeLength="4955.70" waitingTime="0.00" waitingCount="0" stopTime="0.00" timeLoss="0.74" rerouteNo="0" devices="tripinfo_CVToC.6 routing_CVToC.6 ssm_CVToC.6 toc_CVToC.6 driverstateCVToC.6" vType="vehLVOS915" speedFactor="0.85" vaporized=""/>
    <tripinfo id="CAVToC.9" depart="29.70" departLane="entry_0" departPos="3.21" departSpeed="32.71" departDelay="0.00" arrival="181.40" arrivalLane="e0_1" arrivalPos="4800.00" arrivalSpeed="36.88" duration="151.70" routeLength="4996.79" waitingTime="0.00" waitingCount="0" stopTime="0.00" timeLoss="16.26" rerouteNo="0" devices="tripinfo_CAVToC.9 routing_CAVToC.9 ssm_CAVToC.9 toc_CAVToC.9 driverstateCAVToC.9" vType="vehLVOS43" speedFactor="1.02" vaporized=""/>
    <tripinfo id="CVToC.7" depart="20.80" departLane="entry_0" departPos="33.01" departSpeed="31.90" departDelay="0.10" arrival="181.60" arrivalLane="e0_0" arrivalPos="4800.00" arrivalSpeed="34.55" duration="160.80" routeLength="4966.99" waitingTime="0.00" waitingCount="0" stopTime="0.00" timeLoss="39.95" rerouteNo="0" devices="tripinfo_CVToC.7 routing_CVToC.7 ssm_CVToC.7 toc_CVToC.7 driverstateCVToC.7" vType="vehLVOS9" speedFactor="1.14" vaporized=""/>
    <tripinfo id="CVToC.9" depart="23.90" departLane="entry_0" departPos="50.48" departSpeed="32.54" departDelay="0.10" arrival="183.40" arrivalLane="e0_0" arrivalPos="4800.00" arrivalSpeed="38.36" duration="159.50" routeLength="4949.52" waitingTime="0.00" waitingCount="0" stopTime="0.00" timeLoss="33.14" rerouteNo="0" devices="tripinfo_CVToC.9 routing_CVToC.9 ssm_CVToC.9 toc_CVToC.9 driverstateCVToC.9" vType="vehLVOS361" speedFactor="1.08" vaporized=""/>
    <tripinfo id="CVToC.10" depart="25.10" departLane="entry_0" departPos="8.92" departSpeed="32.92" departDelay="0.50" arrival="184.90" arrivalLane="e0_0" arrivalPos="4800.00" arrivalSpeed="36.29" duration="159.80" routeLength="4991.08" waitingTime="0.00" waitingCount="0" stopTime="0.00" timeLoss="22.56" rerouteNo="0" devices="tripinfo_CVToC.10 routing_CVToC.10 ssm_CVToC.10 toc_CVToC.10 driverstateCVToC.10" vType="vehLVOS788" speedFactor="1.01" vaporized=""/>
    <tripinfo id="CAVToC.12" depart="35.80" departLane="entry_1" departPos="25.28" departSpeed="30.41" departDelay="0.00" arrival="185.80" arrivalLane="e0_1" arrivalPos="4800.00" arrivalSpeed="35.15" duration="150.00" routeLength="4974.72" waitingTime="0.00" waitingCount="0" stopTime="0.00" timeLoss="8.73" rerouteNo="0" devices="tripinfo_CAVToC.12 routing_CAVToC.12 ssm_CAVToC.12 toc_CAVToC.12 driverstateCAVToC.12" vType="vehLVOS528" speedFactor="0.98" vaporized=""/>
    <tripinfo id="LV.9" depart="36.40" departLane="entry_0" departPos="43.91" departSpeed="41.31" departDelay="0.20" arrival="186.70" arrivalLane="e0_1" arrivalPos="4800.00" arrivalSpeed="35.97" duration="150.30" routeLength="4956.09" waitingTime="0.00" waitingCount="0" stopTime="0.00" timeLoss="30.27" rerouteNo="0" devices="tripinfo_LV.9 routing_LV.9 ssm_LV.9" vType="vehLVOS316" speedFactor="1.14" vaporized=""/>
    <tripinfo id="CAVToC.8" depart="29.50" departLane="entry_0" departPos="78.37" departSpeed="32.12" departDelay="0.20" arrival="187.60" arrivalLane="e0_0" arrivalPos="4800.00" arrivalSpeed="34.31" duration="158.10" routeLength="4921.63" waitingTime="0.00" waitingCount="0" stopTime="0.00" timeLoss="14.59" rerouteNo="0" devices="tripinfo_CAVToC.8 routing_CAVToC.8 ssm_CAVToC.8 toc_CAVToC.8 driverstateCAVToC.8" vType="vehLVOS131" speedFactor="0.95" vaporized=""/>
    <tripinfo id="CVToC.12" depart="38.20" departLane="entry_1" departPos="2.63" departSpeed="31.78" departDelay="0.80" arrival="188.30" arrivalLane="e0_1" arrivalPos="4800.00" arrivalSpeed="38.26" duration="150.10" routeLength="4997.37" waitingTime="0.00" waitingCount="0" stopTime="0.00" timeLoss="36.47" rerouteNo="0" devices="tripinfo_CVToC.12 routing_CVToC.12 ssm_CVToC.12 toc_CVToC.12 driverstateCVToC.12" vType="vehLVOS349" speedFactor="1.22" vaporized=""/>
    <tripinfo id="CAVToC.13" depart="40.80" departLane="entry_1" departPos="7.13" departSpeed="32.07" departDelay="1.60" arrival="189.20" arrivalLane="e0_0" arrivalPos="4800.00" arrivalSpeed="35.46" duration="148.40" routeLength="4992.87" waitingTime="0.00" waitingCount="0" stopTime="0.00" timeLoss="7.57" rerouteNo="0" devices="tripinfo_CAVToC.13 routing_CAVToC.13 ssm_CAVToC.13 toc_CAVToC.13 driverstateCAVToC.13" vType="vehLVOS512" speedFactor="0.98" vaporized=""/>
    <tripinfo id="CAVToC.14" depart="43.70" departLane="entry_1" departPos="14.58" departSpeed="33.24" departDelay="1.00" arrival="189.30" arrivalLane="e0_1" arrivalPos="4800.00" arrivalSpeed="38.64" duration="145.60" routeLength="4985.42" waitingTime="0.00" waitingCount="0" stopTime="0.00" timeLoss="16.51" rerouteNo="0" devices="tripinfo_CAVToC.14 routing_CAVToC.14 ssm_CAVToC.14 toc_CAVToC.14 driverstateCAVToC.14" vType="vehLVOS844" speedFactor="1.07" vaporized=""/>
    <tripinfo id="CAVToC.15" depart="44.50" departLane="entry_0" departPos="3.45" departSpeed="32.60" departDelay="1.20" arrival="194.10" arrivalLane="e0_1" arrivalPos="4800.00" arrivalSpeed="36.99" duration="149.60" routeLength="4996.55" waitingTime="0.00" waitingCount="0" stopTime="0.00" timeLoss="14.58" rerouteNo="0" devices="tripinfo_CAVToC.15 routing_CAVToC.15 ssm_CAVToC.15 toc_CAVToC.15 driverstateCAVToC.15" vType="vehLVOS491" speedFactor="1.03" vaporized=""/>
    <tripinfo id="LV.7" depart="31.70" departLane="entry_0" departPos="60.97" departSpeed="30.12" departDelay="0.00" arrival="199.60" arrivalLane="e0_0" arrivalPos="4800.00" arrivalSpeed="30.11" duration="167.90" routeLength="4939.03" waitingTime="0.00" waitingCount="0" stopTime="0.00" timeLoss="3.85" rerouteNo="0" devices="tripinfo_LV.7 routing_LV.7 ssm_LV.7" vType="vehLVOS909" speedFactor="0.83" vaporized=""/>
    <tripinfo id="LV.10" depart="39.60" departLane="entry_0" departPos="9.38" departSpeed="32.26" departDelay="0.70" arrival="201.40" arrivalLane="e0_1" arrivalPos="4800.00" arrivalSpeed="32.26" duration="161.80" routeLength="4990.62" waitingTime="0.00" waitingCount="0" stopTime="0.00" timeLoss="7.02" rerouteNo="0" devices="tripinfo_LV.10 routing_LV.10 ssm_LV.10" vType="vehLVOS214" speedFactor="0.89" vaporized=""/>
    <tripinfo id="LV.8" depart="34.20" departLane="entry_1" departPos="53.37" departSpeed="29.85" departDelay="0.00" arrival="202.20" arrivalLane="e0_0" arrivalPos="4800.00" arrivalSpeed="29.78" duration="168.00" routeLength="4946.63" waitingTime="0.00" waitingCount="0" stopTime="0.00" timeLoss="2.27" rerouteNo="0" devices="tripinfo_LV.8 routing_LV.8 ssm_LV.8" vType="vehLVOS366" speedFactor="0.83" vaporized=""/>
    <tripinfo id="CVToC.11" depart="37.60" departLane="entry_0" departPos="3.25" departSpeed="36.66" departDelay="0.50" arrival="203.50" arrivalLane="e0_0" arrivalPos="4800.00" arrivalSpeed="31.68" duration="165.90" routeLength="4996.75" waitingTime="0.00" waitingCount="0" stopTime="0.00" timeLoss="42.06" rerouteNo="0" devices="tripinfo_CVToC.11 routing_CVToC.11 ssm_CVToC.11 toc_CVToC.11 driverstateCVToC.11" vType="vehLVOS516" speedFactor="1.12" vaporized=""/>
    <tripinfo id="CVToC.14" depart="45.80" departLane="entry_1" departPos="15.98" departSpeed="31.39" departDelay="1.50" arrival="204.90" arrivalLane="e0_1" arrivalPos="4800.00" arrivalSpeed="31.38" duration="159.10" routeLength="4984.02" waitingTime="0.00" waitingCount="0" stopTime="0.00" timeLoss="0.30" rerouteNo="0" devices="tripinfo_CVToC.14 routing_CVToC.14 ssm_CVToC.14 toc_CVToC.14 driverstateCVToC.14" vType="vehLVOS883" speedFactor="0.87" vaporized=""/>
    <tripinfo id="CVToC.15" depart="49.00" departLane="entry_1" departPos="44.46" departSpeed="31.64" departDelay="1.90" arrival="206.20" arrivalLane="e0_1" arrivalPos="4800.00" arrivalSpeed="32.47" duration="157.20" routeLength="4955.54" waitingTime="0.00" waitingCount="0" stopTime="0.00" timeLoss="5.92" rerouteNo="0" devices="tripinfo_CVToC.15 routing_CVToC.15 ssm_CVToC.15 toc_CVToC.15 driverstateCVToC.15" vType="vehLVOS961" speedFactor="0.91" vaporized=""/>
    <tripinfo id="CVToC.13" depart="42.60" departLane="entry_0" departPos="22.99" departSpeed="31.84" departDelay="0.00" arrival="207.00" arrivalLane="e0_0" arrivalPos="4800.00" arrivalSpeed="33.31" duration="164.40" routeLength="4977.01" waitingTime="0.00" waitingCount="0" stopTime="0.00" timeLoss="29.12" rerouteNo="0" devices="tripinfo_CVToC.13 routing_CVToC.13 ssm_CVToC.13 toc_CVToC.13 driverstateCVToC.13" vType="vehLVOS852" speedFactor="1.02" vaporized=""/>
    <tripinfo id="CAVToC.17" depart="51.40" departLane="entry_1" departPos="46.09" departSpeed="31.92" departDelay="0.40" arrival="208.30" arrivalLane="e0_1" arrivalPos="4800.00" arrivalSpeed="34.40" duration="156.90" routeLength="4953.91" waitingTime="0.00" waitingCount="0" stopTime="0.00" timeLoss="12.98" rerouteNo="0" devices="tripinfo_CAVToC.17 routing_CAVToC.17 ssm_CAVToC.17 toc_CAVToC.17 driverstateCAVToC.17" vType="vehLVOS89" speedFactor="0.95" vaporized=""/>
    <tripinfo id="CAVToC.16" depart="46.70" departLane="entry_0" departPos="4.02" departSpeed="32.85" departDelay="0.90" arrival="208.50" arrivalLane="e0_0" arrivalPos="4800.00" arrivalSpeed="32.66" duration="161.80" routeLength="4995.98" waitingTime="0.00" waitingCount="0" stopTime="0.00" timeLoss="9.66" rerouteNo="0" devices="tripinfo_CAVToC.16 routing_CAVToC.16 ssm_CAVToC.16 toc_CAVToC.16 driverstateCAVToC.16" vType="vehLVOS255" speedFactor="0.91" vaporized=""/>
    <tripinfo id="LV.12" depart="53.90" departLane="entry_1" departPos="16.07" departSpeed="40.90" departDelay="0.20" arrival="209.20" arrivalLane="e0_1" arrivalPos="4800.00" arrivalSpeed="35.77" duration="155.30" routeLength="4983.93" waitingTime="0.00" waitingCount="0" stopTime="0.00" timeLoss="33.37" rerouteNo="0" devices="tripinfo_LV.12 routing_LV.12 ssm_LV.12" vType="vehLVOS383" speedFactor="1.13" vaporized=""/>
    <tripinfo id="CVToC.16" depart="50.10" departLane="entry_0" departPos="30.20" departSpeed="31.99" departDelay="0.10" arrival="209.40" arrivalLane="e0_0" arrivalPos="4800.00" arrivalSpeed="35.67" duration="159.30" routeLength="4969.80" waitingTime="0.00" waitingCount="0" stopTime="0.00" timeLoss="21.90" rerouteNo="0" devices="tripinfo_CVToC.16 routing_CVToC.16 ssm_CVToC.16 toc_CVToC.16 driverstateCVToC.16" vType="vehLVOS123" speedFactor="1.00" vaporized=""/>
    <tripinfo id="CAVToC.19" depart="55.40" departLane="entry_1" departPos="3.36" departSpeed="36.34" departDelay="0.30" arrival="210.50" arrivalLane="e0_1" arrivalPos="4800.00" arrivalSpeed="36.74" duration="155.10" routeLength="4996.64" waitingTime="0.00" waitingCount="0" stopTime="0.00" timeLoss="19.12" rerouteNo="0" devices="tripinfo_CAVToC.19 routing_CAVToC.19 ssm_CAVToC.19 toc_CAVToC.19 driverstateCAVToC.19" vType="vehLVOS726" speedFactor="1.02" vaporized=""/>
    <tripinfo id="CAVToC.20" depart="58.80" departLane="entry_1" departPos="7.25" departSpeed="33.79" departDelay="1.00" arrival="212.70" arrivalLane="e0_0" arrivalPos="4800.00" arrivalSpeed="33.60" duration="153.90" routeLength="4992.75" waitingTime="0.00" waitingCount="0" stopTime="0.00" timeLoss="6.10" rerouteNo="0" devices="tripinfo_CAVToC.20 routing_CAVToC.20 ssm_CAVToC.20 toc_CAVToC.20 driverstateCAVToC.20" vType="vehLVOS980" speedFactor="0.94" vaporized=""/>
    <tripinfo id="LV.14" depart="56.70" departLane="entry_1" departPos="4.25" departSpeed="35.12" departDelay="1.50" arrival="213.40" arrivalLane="e0_1" arrivalPos="4800.00" arrivalSpeed="35.07" duration="156.70" routeLength="4995.75" waitingTime="0.00" waitingCount="0" stopTime="0.00" timeLoss="14.37" rerouteNo="0" devices="tripinfo_LV.14 routing_LV.14 ssm_LV.14" vType="vehLVOS752" speedFactor="0.97" vaporized=""/>
    <tripinfo id="CAVToC.22" depart="61.80" departLane="entry_1" departPos="28.32" departSpeed="34.32" departDelay="1.50" arrival="214.60" arrivalLane="e0_1" arrivalPos="4800.00" arrivalSpeed="36.94" duration="152.80" routeLength="4971.68" waitingTime="0.00" waitingCount="0" stopTime="0.00" timeLoss="22.28" rerouteNo="0" devices="tripinfo_CAVToC.22 routing_CAVToC.22 ssm_CAVToC.22 toc_CAVToC.22 driverstateCAVToC.22" vType="vehLVOS704" speedFactor="1.06" vaporized=""/>
    <tripinfo id="LV.11" depart="65.40" departLane="entry_1" departPos="0.63" departSpeed="42.28" departDelay="23.20" arrival="216.00" arrivalLane="e0_1" arrivalPos="4800.00" arrivalSpeed="36.27" duration="150.60" routeLength="4999.37" waitingTime="0.00" waitingCount="0" stopTime="0.00" timeLoss="32.35" rerouteNo="0" devices="tripinfo_LV.11 routing_LV.11 ssm_LV.11" vType="vehLVOS258" speedFactor="1.17" vaporized=""/>
    <tripinfo id="LV.15" depart="66.30" departLane="entry_1" departPos="30.87" departSpeed="35.17" departDelay="0.00" arrival="217.30" arrivalLane="e0_0" arrivalPos="4800.00" arrivalSpeed="35.15" duration="151.00" routeLength="4969.13" waitingTime="0.00" waitingCount="0" stopTime="0.00" timeLoss="9.70" rerouteNo="0" devices="tripinfo_LV.15 routing_LV.15 ssm_LV.15" vType="vehLVOS541" speedFactor="0.97" vaporized=""/>
    <tripinfo id="LV.17" depart="69.30" departLane="entry_1" departPos="90.33" departSpeed="36.26" departDelay="0.00" arrival="218.00" arrivalLane="e0_1" arrivalPos="4800.00" arrivalSpeed="36.14" duration="148.70" routeLength="4909.67" waitingTime="0.00" waitingCount="0" stopTime="0.00" timeLoss="13.28" rerouteNo="0" devices="tripinfo_LV.17 routing_LV.17 ssm_LV.17" vType="vehLVOS178" speedFactor="1.00" vaporized=""/>
    <tripinfo id="CVToC.20" depart="71.40" departLane="entry_1" departPos="92.75" departSpeed="33.45" departDelay="0.10" arrival="222.00" arrivalLane="e0_1" arrivalPos="4800.00" arrivalSpeed="33.39" duration="150.60" routeLength="4907.25" waitingTime="0.00" waitingCount="0" stopTime="0.00" timeLoss="3.90" rerouteNo="0" devices="tripinfo_CVToC.20 routing_CVToC.20 ssm_CVToC.20 toc_CVToC.20 driverstateCVToC.20" vType="vehLVOS756" speedFactor="0.93" vaporized=""/>
    <tripinfo id="LV.13" depart="54.30" departLane="entry_0" departPos="148.79" departSpeed="28.90" departDelay="0.10" arrival="222.90" arrivalLane="e0_0" arrivalPos="4800.00" arrivalSpeed="28.86" duration="168.60" routeLength="4851.21" waitingTime="0.00" waitingCount="0" stopTime="0.00" timeLoss="0.71" rerouteNo="0" devices="tripinfo_LV.13 routing_LV.13 ssm_LV.13" vType="vehLVOS693" speedFactor="0.80" vaporized=""/>
    <tripinfo id="LV.16" depart="68.00" departLane="entry_0" departPos="4.65" departSpeed="35.49" departDelay="0.30" arrival="223.00" arrivalLane="e0_1" arrivalPos="4800.00" arrivalSpeed="35.44" duration="155.00" routeLength="4995.35" waitingTime="0.00" waitingCount="0" stopTime="0.00" timeLoss="14.23" rerouteNo="0" devices="tripinfo_LV.16 routing_LV.16 ssm_LV.16" vType="vehLVOS22" speedFactor="0.98" vaporized=""/>
    <tripinfo id="CAVToC.18" depart="54.70" departLane="entry_0" departPos="76.56" departSpeed="29.95" departDelay="0.50" arrival="224.30" arrivalLane="e0_0" arrivalPos="4800.00" arrivalSpeed="30.25" duration="169.60" routeLength="4923.44" waitingTime="0.00" waitingCount="0" stopTime="0.00" timeLoss="44.32" rerouteNo="0" devices="tripinfo_CAVToC.18 routing_CAVToC.18 ssm_CAVToC.18 toc_CAVToC.18 driverstateCAVToC.18" vType="vehLVOS654" speedFactor="1.09" vaporized=""/>
    <tripinfo id="CAVToC.24" depart="72.40" departLane="entry_1" departPos="41.86" departSpeed="34.02" departDelay="0.00" arrival="224.80" arrivalLane="e0_1" arrivalPos="4800.00" arrivalSpeed="36.94" duration="152.40" routeLength="4958.14" waitingTime="0.00" waitingCount="0" stopTime="0.00" timeLoss="21.57" rerouteNo="0" devices="tripinfo_CAVToC.24 routing_CAVToC.24 ssm_CAVToC.24 toc_CAVToC.24 driverstateCAVToC.24" vType="vehLVOS302" speedFactor="1.05" vaporized=""/>
    <tripinfo id="CVToC.17" depart="55.00" departLane="entry_0" departPos="16.48" departSpeed="30.25" departDelay="0.20" arrival="226.20" arrivalLane="e0_0" arrivalPos="4800.00" arrivalSpeed="32.16" duration="171.20" routeLength="4983.52" waitingTime="0.00" waitingCount="0" stopTime="0.00" timeLoss="16.13" rerouteNo="0" devices="tripinfo_CVToC.17 routing_CVToC.17 ssm_CVToC.17 toc_CVToC.17 driverstateCVToC.17" vType="vehLVOS458" speedFactor="0.89" vaporized=""/>
    <tripinfo id="CAVToC.25" depart="74.00" departLane="entry_1" departPos="18.46" departSpeed="34.16" departDelay="0.00" arrival="226.30" arrivalLane="e0_1" arrivalPos="4800.00" arrivalSpeed="35.17" duration="152.30" routeLength="4981.54" waitingTime="0.00" waitingCount="0" stopTime="0.00" timeLoss="10.66" rerouteNo="0" devices="tripinfo_CAVToC.25 routing_CAVToC.25 ssm_CAVToC.25 toc_CAVToC.25 driverstateCAVToC.25" vType="vehLVOS247" speedFactor="0.97" vaporized=""/>
    <tripinfo id="CVToC.18" depart="57.70" departLane="entry_0" departPos="12.59" departSpeed="31.05" departDelay="1.00" arrival="228.00" arrivalLane="e0_0" arrivalPos="4800.00" arrivalSpeed="36.44" duration="170.30" routeLength="4987.41" waitingTime="0.00" waitingCount="0" stopTime="0.00" timeLoss="40.79" rerouteNo="0" devices="tripinfo_CVToC.18 routing_CVToC.18 ssm_CVToC.18 toc_CVToC.18 driverstateCVToC.18" vType="vehLVOS196" speedFactor="1.07" vaporized=""/>