<?xml version="1.0" encoding="UTF-8"?>

<!-- generated on Wed Jun 24 11:31:14 2020 by Eclipse SUMO Version v1_6_0+0553-a03471b
<configuration xmlns:xsi="http://www.w3.org/2001/XMLSchema-instance" xsi:noNamespaceSchemaLocation="http://sumo.dlr.de/xsd/sumoConfiguration.xsd">

    <input>
        <net-file value="scenario/UC5_1.net.xml"/>
        <route-files value="scenario/routes_trafficMix_0_trafficDemand_1_driverBehaviour_OS_seed_0.xml"/>
        <additional-files value="scenario/additionalsOutput_trafficMix_0_trafficDemand_1_driverBehaviour_OS_seed_0.xml,scenario/vTypesCAVToC_OS.add.xml,scenario/vTypesCVToC_OS.add.xml,scenario/vTypesLV_OS.add.xml,scenario/shapes.add.xml,scenario/view.add.xml"/>
    </input>

    <output>
        <tripinfo-output value="/home/noul_ar/workspace/tor-distribution/outputs/simulations/dnq_dc_seed_30.zip_20200624-101517/tripinfo_9.xml"/>
    </output>

    <time>
        <step-length value="0.1"/>
    </time>

    <processing>
        <step-method.ballistic value="true"/>
        <ignore-route-errors value="true"/>
        <lanechange.duration value="2.5"/>
    </processing>

    <report>
        <no-step-log value="true"/>
    </report>

    <toc_device>
        <device.toc.ogNewTimeHeadway value="100"/>
        <device.toc.ogNewSpaceHeadway value="5"/>
        <device.toc.ogMaxDecel value="1"/>
        <device.toc.ogChangeRate value="1"/>
    </toc_device>

    <traci_server>
        <remote-port value="34799"/>
    </traci_server>

    <random_number>
        <seed value="1033"/>
    </random_number>

    <gui_only>
        <tracker-interval value="0.1"/>
    </gui_only>

</configuration>
-->

<tripinfos xmlns:xsi="http://www.w3.org/2001/XMLSchema-instance" xsi:noNamespaceSchemaLocation="http://sumo.dlr.de/xsd/tripinfo_file.xsd">
    <tripinfo id="CAVToC.1" depart="3.70" departLane="entry_1" departPos="199.90" departSpeed="35.60" departDelay="0.00" arrival="130.20" arrivalLane="e0_0" arrivalPos="4800.00" arrivalSpeed="40.44" duration="126.50" routeLength="4800.10" waitingTime="0.00" waitingCount="0" stopTime="0.00" timeLoss="7.86" rerouteNo="0" devices="tripinfo_CAVToC.1 routing_CAVToC.1 ssm_CAVToC.1 toc_CAVToC.1 driverstateCAVToC.1" vType="vehLVOS374" speedFactor="1.12" vaporized=""/>
    <tripinfo id="CAVToC.2" depart="5.00" departLane="entry_1" departPos="153.29" departSpeed="35.54" departDelay="0.00" arrival="130.90" arrivalLane="e0_1" arrivalPos="4800.00" arrivalSpeed="42.08" duration="125.90" routeLength="4846.71" waitingTime="0.00" waitingCount="0" stopTime="0.00" timeLoss="10.68" rerouteNo="0" devices="tripinfo_CAVToC.2 routing_CAVToC.2 ssm_CAVToC.2 toc_CAVToC.2 driverstateCAVToC.2" vType="vehLVOS746" speedFactor="1.17" vaporized=""/>
    <tripinfo id="CVToC.0" depart="0.30" departLane="entry_0" departPos="199.90" departSpeed="36.57" departDelay="0.00" arrival="131.90" arrivalLane="e0_0" arrivalPos="4800.00" arrivalSpeed="36.43" duration="131.60" routeLength="4800.10" waitingTime="0.00" waitingCount="0" stopTime="0.00" timeLoss="0.35" rerouteNo="0" devices="tripinfo_CVToC.0 routing_CVToC.0 ssm_CVToC.0 toc_CVToC.0 driverstateCVToC.0" vType="vehLVOS588" speedFactor="1.01" vaporized=""/>
    <tripinfo id="CAVToC.0" depart="1.10" departLane="entry_1" departPos="199.90" departSpeed="34.84" departDelay="0.00" arrival="139.10" arrivalLane="e0_0" arrivalPos="4800.00" arrivalSpeed="34.80" duration="138.00" routeLength="4800.10" waitingTime="0.00" waitingCount="0" stopTime="0.00" timeLoss="0.14" rerouteNo="0" devices="tripinfo_CAVToC.0 routing_CAVToC.0 ssm_CAVToC.0 toc_CAVToC.0 driverstateCAVToC.0" vType="vehLVOS22" speedFactor="0.96" vaporized=""/>
    <tripinfo id="CVToC.2" depart="5.10" departLane="entry_1" departPos="81.70" departSpeed="35.72" departDelay="0.00" arrival="141.40" arrivalLane="e0_0" arrivalPos="4800.00" arrivalSpeed="36.39" duration="136.30" routeLength="4918.30" waitingTime="0.00" waitingCount="0" stopTime="0.00" timeLoss="1.14" rerouteNo="0" devices="tripinfo_CVToC.2 routing_CVToC.2 ssm_CVToC.2 toc_CVToC.2 driverstateCVToC.2" vType="vehLVOS292" speedFactor="1.01" vaporized=""/>
    <tripinfo id="CVToC.1" depart="2.60" departLane="entry_0" departPos="199.90" departSpeed="34.22" departDelay="0.00" arrival="143.10" arrivalLane="e0_0" arrivalPos="4800.00" arrivalSpeed="34.21" duration="140.50" routeLength="4800.10" waitingTime="0.00" waitingCount="0" stopTime="0.00" timeLoss="0.17" rerouteNo="0" devices="tripinfo_CVToC.1 routing_CVToC.1 ssm_CVToC.1 toc_CVToC.1 driverstateCVToC.1" vType="vehLVOS968" speedFactor="0.95" vaporized=""/>
    <tripinfo id="CAVToC.3" depart="5.40" departLane="entry_1" departPos="6.43" departSpeed="36.13" departDelay="0.00" arrival="145.10" arrivalLane="e0_1" arrivalPos="4800.00" arrivalSpeed="38.89" duration="139.70" routeLength="4993.57" waitingTime="0.00" waitingCount="0" stopTime="0.00" timeLoss="11.30" rerouteNo="0" devices="tripinfo_CAVToC.3 routing_CAVToC.3 ssm_CAVToC.3 toc_CAVToC.3 driverstateCAVToC.3" vType="vehLVOS277" speedFactor="1.08" vaporized=""/>
    <tripinfo id="CAVToC.4" depart="6.90" departLane="entry_0" departPos="112.30" departSpeed="34.77" departDelay="0.00" arrival="145.80" arrivalLane="e0_1" arrivalPos="4800.00" arrivalSpeed="41.24" duration="138.90" routeLength="4887.70" waitingTime="0.00" waitingCount="0" stopTime="0.00" timeLoss="26.23" rerouteNo="0" devices="tripinfo_CAVToC.4 routing_CAVToC.4 ssm_CAVToC.4 toc_CAVToC.4 driverstateCAVToC.4" vType="vehLVOS376" speedFactor="1.20" vaporized=""/>
    <tripinfo id="CVToC.3" depart="6.80" departLane="entry_0" departPos="199.90" departSpeed="33.72" departDelay="0.20" arrival="149.90" arrivalLane="e0_0" arrivalPos="4800.00" arrivalSpeed="33.72" duration="143.10" routeLength="4800.10" waitingTime="0.00" waitingCount="0" stopTime="0.00" timeLoss="0.71" rerouteNo="0" devices="tripinfo_CVToC.3 routing_CVToC.3 ssm_CVToC.3 toc_CVToC.3 driverstateCVToC.3" vType="vehLVOS844" speedFactor="0.93" vaporized=""/>
    <tripinfo id="CAVToC.8" depart="11.90" departLane="entry_1" departPos="67.03" departSpeed="31.02" departDelay="0.00" arrival="150.80" arrivalLane="e0_1" arrivalPos="4800.00" arrivalSpeed="37.56" duration="138.90" routeLength="4932.97" waitingTime="0.00" waitingCount="0" stopTime="0.00" timeLoss="7.54" rerouteNo="0" devices="tripinfo_CAVToC.8 routing_CAVToC.8 ssm_CAVToC.8 toc_CAVToC.8 driverstateCAVToC.8" vType="vehLVOS602" speedFactor="1.04" vaporized=""/>
    <tripinfo id="CAVToC.6" depart="9.60" departLane="entry_1" departPos="78.32" departSpeed="35.06" departDelay="0.00" arrival="151.50" arrivalLane="e0_0" arrivalPos="4800.00" arrivalSpeed="35.76" duration="141.90" routeLength="4921.68" waitingTime="0.00" waitingCount="0" stopTime="0.00" timeLoss="4.35" rerouteNo="0" devices="tripinfo_CAVToC.6 routing_CAVToC.6 ssm_CAVToC.6 toc_CAVToC.6 driverstateCAVToC.6" vType="vehLVOS672" speedFactor="0.99" vaporized=""/>
    <tripinfo id="CAVToC.5" depart="9.20" departLane="entry_0" departPos="120.36" departSpeed="33.98" departDelay="0.00" arrival="154.00" arrivalLane="e0_0" arrivalPos="4800.00" arrivalSpeed="34.98" duration="144.80" routeLength="4879.64" waitingTime="0.00" waitingCount="0" stopTime="0.00" timeLoss="5.35" rerouteNo="0" devices="tripinfo_CAVToC.5 routing_CAVToC.5 ssm_CAVToC.5 toc_CAVToC.5 driverstateCAVToC.5" vType="vehLVOS29" speedFactor="0.97" vaporized=""/>
    <tripinfo id="CAVToC.10" depart="15.00" departLane="entry_1" departPos="0.55" departSpeed="29.68" departDelay="0.90" arrival="155.60" arrivalLane="e0_1" arrivalPos="4800.00" arrivalSpeed="38.20" duration="140.60" routeLength="4999.45" waitingTime="0.00" waitingCount="0" stopTime="0.00" timeLoss="9.75" rerouteNo="0" devices="tripinfo_CAVToC.10 routing_CAVToC.10 ssm_CAVToC.10 toc_CAVToC.10 driverstateCAVToC.10" vType="vehLVOS280" speedFactor="1.06" vaporized=""/>
    <tripinfo id="LV.1" depart="12.30" departLane="entry_1" departPos="3.11" departSpeed="35.19" departDelay="0.10" arrival="158.80" arrivalLane="e0_0" arrivalPos="4800.00" arrivalSpeed="35.09" duration="146.50" routeLength="4996.89" waitingTime="0.00" waitingCount="0" stopTime="0.00" timeLoss="4.43" rerouteNo="0" devices="tripinfo_LV.1 routing_LV.1 ssm_LV.1" vType="vehLVOS439" speedFactor="0.97" vaporized=""/>
    <tripinfo id="CVToC.6" depart="17.60" departLane="entry_1" departPos="0.04" departSpeed="30.21" departDelay="0.30" arrival="164.60" arrivalLane="e0_0" arrivalPos="4800.00" arrivalSpeed="35.08" duration="147.00" routeLength="4999.96" waitingTime="0.00" waitingCount="0" stopTime="0.00" timeLoss="4.73" rerouteNo="0" devices="tripinfo_CVToC.6 routing_CVToC.6 ssm_CVToC.6 toc_CVToC.6 driverstateCVToC.6" vType="vehLVOS52" speedFactor="0.97" vaporized=""/>
    <tripinfo id="CAVToC.7" depart="11.20" departLane="entry_0" departPos="31.28" departSpeed="33.74" departDelay="0.00" arrival="165.70" arrivalLane="e0_1" arrivalPos="4800.00" arrivalSpeed="35.44" duration="154.50" routeLength="4968.72" waitingTime="0.00" waitingCount="0" stopTime="0.00" timeLoss="14.64" rerouteNo="0" devices="tripinfo_CAVToC.7 routing_CAVToC.7 ssm_CAVToC.7 toc_CAVToC.7 driverstateCAVToC.7" vType="vehLVOS198" speedFactor="0.98" vaporized=""/>
    <tripinfo id="CVToC.4" depart="9.50" departLane="entry_0" departPos="50.20" departSpeed="34.46" departDelay="0.00" arrival="166.70" arrivalLane="e0_1" arrivalPos="4800.00" arrivalSpeed="37.29" duration="157.20" routeLength="4949.80" waitingTime="0.00" waitingCount="0" stopTime="0.00" timeLoss="27.16" rerouteNo="0" devices="tripinfo_CVToC.4 routing_CVToC.4 ssm_CVToC.4 toc_CVToC.4 driverstateCVToC.4" vType="vehLVOS777" speedFactor="1.05" vaporized=""/>
    <tripinfo id="LV.0" depart="10.90" departLane="entry_1" departPos="116.31" departSpeed="30.25" departDelay="0.00" arrival="173.40" arrivalLane="e0_0" arrivalPos="4800.00" arrivalSpeed="30.13" duration="162.50" routeLength="4883.69" waitingTime="0.00" waitingCount="0" stopTime="0.00" timeLoss="1.08" rerouteNo="0" devices="tripinfo_LV.0 routing_LV.0 ssm_LV.0" vType="vehLVOS145" speedFactor="0.84" vaporized=""/>
    <tripinfo id="CAVToC.12" depart="22.90" departLane="entry_1" departPos="12.89" departSpeed="30.68" departDelay="0.60" arrival="176.70" arrivalLane="e0_1" arrivalPos="4800.00" arrivalSpeed="34.96" duration="153.80" routeLength="4987.11" waitingTime="0.00" waitingCount="0" stopTime="0.00" timeLoss="11.13" rerouteNo="0" devices="tripinfo_CAVToC.12 routing_CAVToC.12 ssm_CAVToC.12 toc_CAVToC.12 driverstateCAVToC.12" vType="vehLVOS29" speedFactor="0.97" vaporized=""/>
    <tripinfo id="CVToC.5" depart="16.50" departLane="entry_0" departPos="1.93" departSpeed="27.45" departDelay="0.30" arrival="179.20" arrivalLane="e0_1" arrivalPos="4800.00" arrivalSpeed="39.98" duration="162.70" routeLength="4998.07" waitingTime="0.00" waitingCount="0" stopTime="0.00" timeLoss="39.84" rerouteNo="0" devices="tripinfo_CVToC.5 routing_CVToC.5 ssm_CVToC.5 toc_CVToC.5 driverstateCVToC.5" vType="vehLVOS703" speedFactor="1.13" vaporized=""/>
    <tripinfo id="CAVToC.11" depart="20.40" departLane="entry_1" departPos="15.86" departSpeed="30.26" departDelay="0.60" arrival="180.90" arrivalLane="e0_0" arrivalPos="4800.00" arrivalSpeed="31.39" duration="160.50" routeLength="4984.14" waitingTime="0.00" waitingCount="0" stopTime="0.00" timeLoss="1.90" rerouteNo="0" devices="tripinfo_CAVToC.11 routing_CAVToC.11 ssm_CAVToC.11 toc_CAVToC.11 driverstateCAVToC.11" vType="vehLVOS508" speedFactor="0.87" vaporized=""/>
    <tripinfo id="LV.2" depart="14.60" departLane="entry_1" departPos="74.88" departSpeed="28.65" departDelay="0.00" arrival="187.50" arrivalLane="e0_0" arrivalPos="4800.00" arrivalSpeed="28.62" duration="172.90" routeLength="4925.12" waitingTime="0.00" waitingCount="0" stopTime="0.00" timeLoss="0.95" rerouteNo="0" devices="tripinfo_LV.2 routing_LV.2 ssm_LV.2" vType="vehLVOS14" speedFactor="0.79" vaporized=""/>
    <tripinfo id="CAVToC.15" depart="28.10" departLane="entry_1" departPos="99.92" departSpeed="30.04" departDelay="0.00" arrival="188.00" arrivalLane="e0_1" arrivalPos="4800.00" arrivalSpeed="31.85" duration="159.90" routeLength="4900.08" waitingTime="0.00" waitingCount="0" stopTime="0.00" timeLoss="6.09" rerouteNo="0" devices="tripinfo_CAVToC.15 routing_CAVToC.15 ssm_CAVToC.15 toc_CAVToC.15 driverstateCAVToC.15" vType="vehLVOS452" speedFactor="0.88" vaporized=""/>
    <tripinfo id="LV.5" depart="30.80" departLane="entry_1" departPos="25.99" departSpeed="41.55" departDelay="6.90" arrival="189.40" arrivalLane="e0_1" arrivalPos="4800.00" arrivalSpeed="33.95" duration="158.60" routeLength="4974.01" waitingTime="0.00" waitingCount="0" stopTime="0.00" timeLoss="38.90" rerouteNo="0" devices="tripinfo_LV.5 routing_LV.5 ssm_LV.5" vType="vehLVOS788" speedFactor="1.15" vaporized=""/>
    <tripinfo id="CAVToC.9" depart="13.60" departLane="entry_0" departPos="7.79" departSpeed="31.25" departDelay="0.00" arrival="191.20" arrivalLane="e0_0" arrivalPos="4800.00" arrivalSpeed="31.87" duration="177.60" routeLength="4992.21" waitingTime="0.00" waitingCount="0" stopTime="0.00" timeLoss="65.27" rerouteNo="0" devices="tripinfo_CAVToC.9 routing_CAVToC.9 ssm_CAVToC.9 toc_CAVToC.9 driverstateCAVToC.9" vType="vehLVOS502" speedFactor="1.23" vaporized=""/>
    <tripinfo id="CVToC.8" depart="32.80" departLane="entry_1" departPos="8.08" departSpeed="37.41" departDelay="0.20" arrival="191.70" arrivalLane="e0_1" arrivalPos="4800.00" arrivalSpeed="34.94" duration="158.90" routeLength="4991.92" waitingTime="0.00" waitingCount="0" stopTime="0.00" timeLoss="50.73" rerouteNo="0" devices="tripinfo_CVToC.8 routing_CVToC.8 ssm_CVToC.8 toc_CVToC.8 driverstateCVToC.8" vType="vehLVOS738" speedFactor="1.28" vaporized=""/>
    <tripinfo id="CVToC.7" depart="20.10" departLane="entry_0" departPos="15.38" departSpeed="28.57" departDelay="1.70" arrival="192.60" arrivalLane="e0_0" arrivalPos="4800.00" arrivalSpeed="32.20" duration="172.50" routeLength="4984.62" waitingTime="0.00" waitingCount="0" stopTime="0.00" timeLoss="49.05" rerouteNo="0" devices="tripinfo_CVToC.7 routing_CVToC.7 ssm_CVToC.7 toc_CVToC.7 driverstateCVToC.7" vType="vehLVOS74" speedFactor="1.12" vaporized=""/>
    <tripinfo id="LV.6" depart="30.10" departLane="entry_0" departPos="11.83" departSpeed="36.01" departDelay="0.70" arrival="193.30" arrivalLane="e0_1" arrivalPos="4800.00" arrivalSpeed="35.95" duration="163.20" routeLength="4988.17" waitingTime="0.00" waitingCount="0" stopTime="0.00" timeLoss="24.60" rerouteNo="0" devices="tripinfo_LV.6 routing_LV.6 ssm_LV.6" vType="vehLVOS339" speedFactor="1.00" vaporized=""/>
    <tripinfo id="CVToC.9" depart="35.70" departLane="entry_1" departPos="38.62" departSpeed="34.81" departDelay="0.90" arrival="193.60" arrivalLane="e0_0" arrivalPos="4800.00" arrivalSpeed="33.60" duration="157.90" routeLength="4961.38" waitingTime="0.00" waitingCount="0" stopTime="0.00" timeLoss="15.35" rerouteNo="0" devices="tripinfo_CVToC.9 routing_CVToC.9 ssm_CVToC.9 toc_CVToC.9 driverstateCVToC.9" vType="vehLVOS844" speedFactor="0.96" vaporized=""/>
    <tripinfo id="CAVToC.17" depart="34.60" departLane="entry_0" departPos="13.15" departSpeed="32.81" departDelay="1.80" arrival="195.40" arrivalLane="e0_1" arrivalPos="4800.00" arrivalSpeed="35.84" duration="160.80" routeLength="4986.85" waitingTime="0.00" waitingCount="0" stopTime="0.00" timeLoss="21.62" rerouteNo="0" devices="tripinfo_CAVToC.17 routing_CAVToC.17 ssm_CAVToC.17 toc_CAVToC.17 driverstateCAVToC.17" vType="vehLVOS298" speedFactor="0.99" vaporized=""/>
    <tripinfo id="CVToC.10" depart="39.20" departLane="entry_1" departPos="5.58" departSpeed="29.19" departDelay="0.00" arrival="197.10" arrivalLane="e0_1" arrivalPos="4800.00" arrivalSpeed="36.73" duration="157.90" routeLength="4994.42" waitingTime="0.00" waitingCount="0" stopTime="0.00" timeLoss="21.94" rerouteNo="0" devices="tripinfo_CVToC.10 routing_CVToC.10 ssm_CVToC.10 toc_CVToC.10 driverstateCVToC.10" vType="vehLVOS837" speedFactor="1.02" vaporized=""/>
    <tripinfo id="CAVToC.18" depart="37.30" departLane="entry_0" departPos="14.05" departSpeed="32.13" departDelay="4.10" arrival="198.10" arrivalLane="e0_1" arrivalPos="4800.00" arrivalSpeed="37.18" duration="160.80" routeLength="4985.95" waitingTime="0.00" waitingCount="0" stopTime="0.00" timeLoss="37.13" rerouteNo="0" devices="tripinfo_CAVToC.18 routing_CAVToC.18 ssm_CAVToC.18 toc_CAVToC.18 driverstateCAVToC.18" vType="vehLVOS996" speedFactor="1.12" vaporized=""/>
    <tripinfo id="CAVToC.13" depart="24.50" departLane="entry_0" departPos="71.91" departSpeed="27.10" departDelay="0.70" arrival="199.10" arrivalLane="e0_0" arrivalPos="4800.00" arrivalSpeed="29.31" duration="174.60" routeLength="4928.09" waitingTime="0.00" waitingCount="0" stopTime="0.00" timeLoss="6.47" rerouteNo="0" devices="tripinfo_CAVToC.13 routing_CAVToC.13 ssm_CAVToC.13 toc_CAVToC.13 driverstateCAVToC.13" vType="vehLVOS123" speedFactor="0.81" vaporized=""/>
    <tripinfo id="CAVToC.14" depart="28.00" departLane="entry_0" departPos="93.96" departSpeed="27.31" departDelay="0.40" arrival="200.00" arrivalLane="e0_0" arrivalPos="4800.00" arrivalSpeed="31.90" duration="172.00" routeLength="4906.04" waitingTime="0.00" waitingCount="0" stopTime="0.00" timeLoss="20.81" rerouteNo="0" devices="tripinfo_CAVToC.14 routing_CAVToC.14 ssm_CAVToC.14 toc_CAVToC.14 driverstateCAVToC.14" vType="vehLVOS422" speedFactor="0.90" vaporized=""/>
    <tripinfo id="CAVToC.21" depart="42.70" departLane="entry_1" departPos="22.07" departSpeed="30.06" departDelay="2.70" arrival="200.90" arrivalLane="e0_1" arrivalPos="4800.00" arrivalSpeed="38.20" duration="158.20" routeLength="4977.93" waitingTime="0.00" waitingCount="0" stopTime="0.00" timeLoss="27.79" rerouteNo="0" devices="tripinfo_CAVToC.21 routing_CAVToC.21 ssm_CAVToC.21 toc_CAVToC.21 driverstateCAVToC.21" vType="vehLVOS951" speedFactor="1.06" vaporized=""/>
    <tripinfo id="CAVToC.16" depart="32.40" departLane="entry_0" departPos="16.70" departSpeed="33.83" departDelay="0.10" arrival="201.60" arrivalLane="e0_0" arrivalPos="4800.00" arrivalSpeed="31.68" duration="169.20" routeLength="4983.30" waitingTime="0.00" waitingCount="0" stopTime="0.00" timeLoss="25.28" rerouteNo="0" devices="tripinfo_CAVToC.16 routing_CAVToC.16 ssm_CAVToC.16 toc_CAVToC.16 driverstateCAVToC.16" vType="vehLVOS853" speedFactor="0.96" vaporized=""/>
    <tripinfo id="LV.7" depart="46.40" departLane="entry_1" departPos="4.19" departSpeed="41.47" departDelay="4.20" arrival="201.70" arrivalLane="e0_1" arrivalPos="4800.00" arrivalSpeed="39.11" duration="155.30" routeLength="4995.81" waitingTime="0.00" waitingCount="0" stopTime="0.00" timeLoss="34.77" rerouteNo="0" devices="tripinfo_LV.7 routing_LV.7 ssm_LV.7" vType="vehLVOS481" speedFactor="1.15" vaporized=""/>
    <tripinfo id="CVToC.13" depart="48.50" departLane="entry_1" departPos="5.95" departSpeed="36.53" departDelay="2.40" arrival="203.70" arrivalLane="e0_0" arrivalPos="4800.00" arrivalSpeed="39.35" duration="155.20" routeLength="4994.05" waitingTime="0.00" waitingCount="0" stopTime="0.00" timeLoss="28.30" rerouteNo="0" devices="tripinfo_CVToC.13 routing_CVToC.13 ssm_CVToC.13 toc_CVToC.13 driverstateCVToC.13" vType="vehLVOS78" speedFactor="1.09" vaporized=""/>
    <tripinfo id="CVToC.14" depart="51.20" departLane="entry_1" departPos="35.54" departSpeed="33.83" departDelay="1.70" arrival="205.20" arrivalLane="e0_1" arrivalPos="4800.00" arrivalSpeed="33.82" duration="154.00" routeLength="4964.46" waitingTime="0.00" waitingCount="0" stopTime="0.00" timeLoss="7.18" rerouteNo="0" devices="tripinfo_CVToC.14 routing_CVToC.14 ssm_CVToC.14 toc_CVToC.14 driverstateCVToC.14" vType="vehLVOS966" speedFactor="0.94" vaporized=""/>
    <tripinfo id="CVToC.15" depart="53.00" departLane="entry_1" departPos="12.46" departSpeed="34.33" departDelay="3.40" arrival="207.50" arrivalLane="e0_1" arrivalPos="4800.00" arrivalSpeed="36.43" duration="154.50" routeLength="4987.54" waitingTime="0.00" waitingCount="0" stopTime="0.00" timeLoss="21.91" rerouteNo="0" devices="tripinfo_CVToC.15 routing_CVToC.15 ssm_CVToC.15 toc_CVToC.15 driverstateCVToC.15" vType="vehLVOS217" speedFactor="1.04" vaporized=""/>
    <tripinfo id="LV.8" depart="53.70" departLane="entry_1" departPos="22.18" departSpeed="32.88" departDelay="5.60" arrival="211.00" arrivalLane="e0_0" arrivalPos="4800.00" arrivalSpeed="32.84" duration="157.30" routeLength="4977.82" waitingTime="0.00" waitingCount="0" stopTime="0.00" timeLoss="5.89" rerouteNo="0" devices="tripinfo_LV.8 routing_LV.8 ssm_LV.8" vType="vehLVOS256" speedFactor="0.91" vaporized=""/>
    <tripinfo id="CAVToC.26" depart="55.70" departLane="entry_1" departPos="5.73" departSpeed="33.37" departDelay="4.00" arrival="211.70" arrivalLane="e0_1" arrivalPos="4800.00" arrivalSpeed="38.98" duration="156.00" routeLength="4994.27" waitingTime="0.00" waitingCount="0" stopTime="0.00" timeLoss="28.32" rerouteNo="0" devices="tripinfo_CAVToC.26 routing_CAVToC.26 ssm_CAVToC.26 toc_CAVToC.26 driverstateCAVToC.26" vType="vehLVOS114" speedFactor="1.08" vaporized=""/>
    <tripinfo id="CAVToC.19" depart="36.40" departLane="entry_1" departPos="6.17" departSpeed="28.23" departDelay="0.20" arrival="213.50" arrivalLane="e0_0" arrivalPos="4800.00" arrivalSpeed="28.18" duration="177.10" routeLength="4993.83" waitingTime="0.00" waitingCount="0" stopTime="0.00" timeLoss="0.20" rerouteNo="0" devices="tripinfo_CAVToC.19 routing_CAVToC.19 ssm_CAVToC.19 toc_CAVToC.19 driverstateCAVToC.19" vType="vehLVOS565" speedFactor="0.78" vaporized=""/>
    <tripinfo id="CAVToC.20" depart="39.70" departLane="entry_0" departPos="15.38" departSpeed="27.76" departDelay="0.10" arrival="214.90" arrivalLane="e0_0" arrivalPos="4800.00" arrivalSpeed="30.92" duration="175.20" routeLength="4984.62" waitingTime="0.00" waitingCount="0" stopTime="0.00" timeLoss="21.87" rerouteNo="0" devices="tripinfo_CAVToC.20 routing_CAVToC.20 ssm_CAVToC.20 toc_CAVToC.20 driverstateCAVToC.20" vType="vehLVOS267" speedFactor="0.90" vaporized=""/>
    <tripinfo id="CVToC.16" depart="57.90" departLane="entry_1" departPos="2.50" departSpeed="33.67" departDelay="6.10" arrival="215.60" arrivalLane="e0_1" arrivalPos="4800.00" arrivalSpeed="35.26" duration="157.70" routeLength="4997.50" waitingTime="0.00" waitingCount="0" stopTime="0.00" timeLoss="16.16" rerouteNo="0" devices="tripinfo_CVToC.16 routing_CVToC.16 ssm_CVToC.16 toc_CVToC.16 driverstateCVToC.16" vType="vehLVOS265" speedFactor="0.98" vaporized=""/>
    <tripinfo id="CVToC.11" depart="42.40" departLane="entry_0" departPos="8.35" departSpeed="27.48" departDelay="0.90" arrival="216.70" arrivalLane="e0_0" arrivalPos="4800.00" arrivalSpeed="31.25" duration="174.30" routeLength="4991.65" waitingTime="0.00" waitingCount="0" stopTime="0.00" timeLoss="42.64" rerouteNo="0" devices="tripinfo_CVToC.11 routing_CVToC.11 ssm_CVToC.11 toc_CVToC.11 driverstateCVToC.11" vType="vehLVOS781" speedFactor="1.05" vaporized=""/>
    <tripinfo id="CVToC.17" depart="59.90" departLane="entry_1" departPos="1.39" departSpeed="33.36" departDelay="4.90" arrival="218.40" arrivalLane="e0_1" arrivalPos="4800.00" arrivalSpeed="33.32" duration="158.50" routeLength="4998.61" waitingTime="0.00" waitingCount="0" stopTime="0.00" timeLoss="8.62" rerouteNo="0" devices="tripinfo_CVToC.17 routing_CVToC.17 ssm_CVToC.17 toc_CVToC.17 driverstateCVToC.17" vType="vehLVOS716" speedFactor="0.92" vaporized=""/>
    <tripinfo id="CVToC.12" depart="45.30" departLane="entry_0" departPos="23.72" departSpeed="27.37" departDelay="0.10" arrival="220.30" arrivalLane="e0_0" arrivalPos="4800.00" arrivalSpeed="28.79" duration="175.00" routeLength="4976.28" waitingTime="0.00" waitingCount="0" stopTime="0.00" timeLoss="2.47" rerouteNo="0" devices="tripinfo_CVToC.12 routing_CVToC.12 ssm_CVToC.12 toc_CVToC.12 driverstateCVToC.12" vType="vehLVOS857" speedFactor="0.80" vaporized=""/>
    <tripinfo id="CVToC.19" depart="62.40" departLane="entry_1" departPos="16.10" departSpeed="32.74" departDelay="2.90" arrival="221.10" arrivalLane="e0_1" arrivalPos="4800.00" arrivalSpeed="32.68" duration="158.70" routeLength="4983.90" waitingTime="0.00" waitingCount="0" stopTime="0.00" timeLoss="6.40" rerouteNo="0" devices="tripinfo_CVToC.19 routing_CVToC.19 ssm_CVToC.19 toc_CVToC.19 driverstateCVToC.19" vType="vehLVOS846" speedFactor="0.91" vaporized=""/>
    <tripinfo id="CAVToC.23" depart="47.80" departLane="entry_0" departPos="18.31" departSpeed="27.89" departDelay="0.10" arrival="221.30" arrivalLane="e0_0" arrivalPos="4800.00" arrivalSpeed="30.19" duration="173.50" routeLength="4981.69" waitingTime="0.00" waitingCount="0" stopTime="0.00" timeLoss="25.25" rerouteNo="0" devices="tripinfo_CAVToC.23 routing_CAVToC.23 ssm_CAVToC.23 toc_CAVToC.23 driverstateCAVToC.23" vType="vehLVOS252" speedFactor="0.93" vaporized=""/>
    <tripinfo id="CAVToC.29" depart="65.50" departLane="entry_1" departPos="13.00" departSpeed="29.48" departDelay="1.80" arrival="223.10" arrivalLane="e0_1" arrivalPos="4800.00" arrivalSpeed="37.25" duration="157.60" routeLength="4987.00" waitingTime="0.00" waitingCount="0" stopTime="0.00" timeLoss="35.60" rerouteNo="0" devices="tripinfo_CAVToC.29 routing_CAVToC.29 ssm_CAVToC.29 toc_CAVToC.29 driverstateCAVToC.29" vType="vehLVOS440" speedFactor="1.13" vaporized=""/>
    <tripinfo id="CAVToC.22" depart="50.60" departLane="entry_0" departPos="14.41" departSpeed="28.73" departDelay="3.90" arrival="224.80" arrivalLane="e0_0" arrivalPos="4800.00" arrivalSpeed="33.30" duration="174.20" routeLength="4985.59" waitingTime="0.00" waitingCount="0" stopTime="0.00" timeLoss="42.80" rerouteNo="0" devices="tripinfo_CAVToC.22 routing_CAVToC.22 ssm_CAVToC.22 toc_CAVToC.22 driverstateCAVToC.22" vType="vehLVOS699" speedFactor="1.05" vaporized=""/>
    <tripinfo id="CAVToC.30" depart="68.20" departLane="entry_1" departPos="8.45" departSpeed="30.23" departDelay="3.50" arrival="225.40" arrivalLane="e0_1" arrivalPos="4800.00" arrivalSpeed="37.24" duration="157.20" routeLength="4991.55" waitingTime="0.00" waitingCount="0" stopTime="0.00" timeLoss="23.11" rerouteNo="0" devices="tripinfo_CAVToC.30 routing_CAVToC.30 ssm_CAVToC.30 toc_CAVToC.30 driverstateCAVToC.30" vType="vehLVOS28" speedFactor="1.03" vaporized=""/>
    <tripinfo id="LV.11" depart="70.40" departLane="entry_1" departPos="1.30" departSpeed="34.05" departDelay="6.90" arrival="226.60" arrivalLane="e0_1" arrivalPos="4800.00" arrivalSpeed="34.05" duration="156.20" routeLength="4998.70" waitingTime="0.00" waitingCount="0" stopTime="0.00" timeLoss="9.36" rerouteNo="0" devices="tripinfo_LV.11 routing_LV.11 ssm_LV.11" vType="vehLVOS311" speedFactor="0.94" vaporized=""/>
    <tripinfo id="CAVToC.24" depart="53.80" departLane="entry_0" departPos="29.41" departSpeed="29.00" departDelay="4.00" arrival="226.90" arrivalLane="e0_0" arrivalPos="4800.00" arrivalSpeed="33.59" duration="173.10" routeLength="4970.59" waitingTime="0.00" waitingCount="0" stopTime="0.00" timeLoss="25.13" rerouteNo="0" devices="tripinfo_CAVToC.24 routing_CAVToC.24 ssm_CAVToC.24 toc_CAVToC.24 driverstateCAVToC.24" vType="vehLVOS122" speedFactor="0.93" vaporized=""/>
    <tripinfo id="LV.12" depart="72.80" departLane="entry_1" departPos="26.94" departSpeed="37.03" departDelay="7.70" arrival="227.40" arrivalLane="e0_1" arrivalPos="4800.00" arrivalSpeed="35.78" duration="154.60" routeLength="4973.06" waitingTime="0.00" waitingCount="0" stopTime="0.00" timeLoss="20.24" rerouteNo="0" devices="tripinfo_LV.12 routing_LV.12 ssm_LV.12" vType="vehLVOS488" speedFactor="1.03" vaporized=""/>
    <tripinfo id="CAVToC.25" depart="56.40" departLane="entry_0" departPos="22.92" departSpeed="29.65" departDelay="6.10" arrival="227.90" arrivalLane="e0_0" arrivalPos="4800.00" arrivalSpeed="34.67" duration="171.50" routeLength="4977.08" waitingTime="0.00" waitingCount="0" stopTime="0.00" timeLoss="37.91" rerouteNo="0" devices="tripinfo_CAVToC.25 routing_CAVToC.25 ssm_CAVToC.25 toc_CAVToC.25 driverstateCAVToC.25" vType="vehLVOS489" speedFactor="1.03" vaporized=""/>
    <tripinfo id="CAVToC.28" depart="59.10" departLane="entry_0" departPos="31.94" departSpeed="29.73" departDelay="5.00" arrival="228.90" arrivalLane="e0_0" arrivalPos="4800.00" arrivalSpeed="32.52" duration="169.80" routeLength="4968.06" waitingTime="0.00" waitingCount="0" stopTime="0.00" timeLoss="17.01" rerouteNo="0" devices="tripinfo_CAVToC.28 routing_CAVToC.28 ssm_CAVToC.28 toc_CAVToC.28 driverstateCAVToC.28" vType="vehLVOS49" speedFactor="0.90" vaporized=""/>
    <tripinfo id="CVToC.23" depart="76.80" departLane="entry_1" departPos="0.51" departSpeed="31.24" departDelay="10.40" arrival="230.50" arrivalLane="e0_1" arrivalPos="4800.00" arrivalSpeed="37.63" duration="153.70" routeLength="4999.49" waitingTime="0.00" waitingCount="0" stopTime="0.00" timeLoss="21.21" rerouteNo="0" devices="tripinfo_CVToC.23 routing_CVToC.23 ssm_CVToC.23 toc_CVToC.23 driverstateCVToC.23" vType="vehLVOS918" speedFactor="1.05" vaporized=""/>
    <tripinfo id="CAVToC.27" depart="60.80" departLane="entry_0" departPos="8.62" departSpeed="30.02" departDelay="8.10" arrival="230.80" arrivalLane="e0_0" arrivalPos="4800.00" arrivalSpeed="32.81" duration="170.00" routeLength="4991.38" waitingTime="0.00" waitingCount="0" stopTime="0.00" timeLoss="17.94" rerouteNo="0" devices="tripinfo_CAVToC.27 routing_CAVToC.27 ssm_CAVToC.27 toc_CAVToC.27 driverstateCAVToC.27" vType="vehLVOS181" speedFactor="0.91" vaporized=""/>
    <tripinfo id="CAVToC.32" depart="80.80" departLane="entry_1" departPos="31.45" departSpeed="31.72" departDelay="9.40" arrival="231.60" arrivalLane="e0_1" arrivalPos="4800.00" arrivalSpeed="39.26" duration="150.80" routeLength="4968.55" waitingTime="0.00" waitingCount="0" stopTime="0.00" timeLoss="29.01" rerouteNo="0" devices="tripinfo_CAVToC.32 routing_CAVToC.32 ssm_CAVToC.32 toc_CAVToC.32 driverstateCAVToC.32" vType="vehLVOS708" speedFactor="1.13" vaporized=""/>