<?xml version="1.0" encoding="UTF-8"?>

<!-- generated on 09/23/20 08:51:11 by Eclipse SUMO Version 1.6.0
<configuration xmlns:xsi="http://www.w3.org/2001/XMLSchema-instance" xsi:noNamespaceSchemaLocation="http://sumo.dlr.de/xsd/sumoConfiguration.xsd">

    <input>
        <net-file value="scenario/UC5_1.net.xml"/>
        <route-files value="scenario/routes_trafficMix_0_trafficDemand_1_driverBehaviour_OS_seed_0.xml"/>
        <additional-files value="scenario/additionalsOutput_trafficMix_0_trafficDemand_1_driverBehaviour_OS_seed_0.xml,scenario/vTypesCAVToC_OS.add.xml,scenario/vTypesCVToC_OS.add.xml,scenario/vTypesLV_OS.add.xml,scenario/shapes.add.xml,scenario/view.add.xml"/>
    </input>

    <output>
        <tripinfo-output value="C:\Users\laborknecht\Aris\workspace\ma-branch\tor-distribution/outputs/simulations/DQN__2020-09-22_13-29-46__20200923-071300/tripinfo_10.xml"/>
    </output>

    <time>
        <step-length value="0.1"/>
    </time>

    <processing>
        <step-method.ballistic value="true"/>
        <ignore-route-errors value="true"/>
        <lanechange.duration value="2.5"/>
    </processing>

    <report>
        <no-step-log value="true"/>
    </report>

    <toc_device>
        <device.toc.ogNewTimeHeadway value="100"/>
        <device.toc.ogNewSpaceHeadway value="5"/>
        <device.toc.ogMaxDecel value="1"/>
        <device.toc.ogChangeRate value="1"/>
    </toc_device>

    <traci_server>
        <remote-port value="50594"/>
    </traci_server>

    <random_number>
        <seed value="1034"/>
    </random_number>

    <gui_only>
        <tracker-interval value="0.1"/>
    </gui_only>

</configuration>
-->

<tripinfos xmlns:xsi="http://www.w3.org/2001/XMLSchema-instance" xsi:noNamespaceSchemaLocation="http://sumo.dlr.de/xsd/tripinfo_file.xsd">
    <tripinfo id="CAVToC.0" depart="0.40" departLane="entry_1" departPos="199.90" departSpeed="38.23" departDelay="0.00" arrival="126.00" arrivalLane="e0_0" arrivalPos="4800.00" arrivalSpeed="38.23" duration="125.60" routeLength="4800.10" waitingTime="0.00" waitingCount="0" stopTime="0.00" timeLoss="0.00" rerouteNo="0" devices="tripinfo_CAVToC.0 routing_CAVToC.0 ssm_CAVToC.0 toc_CAVToC.0 driverstateCAVToC.0" vType="vehLVOS19" speedFactor="1.06" vaporized=""/>
    <tripinfo id="LV.0" depart="0.30" departLane="entry_0" departPos="199.90" departSpeed="37.20" departDelay="0.00" arrival="129.40" arrivalLane="e0_0" arrivalPos="4800.00" arrivalSpeed="37.19" duration="129.10" routeLength="4800.10" waitingTime="0.00" waitingCount="0" stopTime="0.00" timeLoss="0.07" rerouteNo="0" devices="tripinfo_LV.0 routing_LV.0 ssm_LV.0" vType="vehLVOS597" speedFactor="1.03" vaporized=""/>
    <tripinfo id="CVToC.0" depart="1.60" departLane="entry_0" departPos="175.80" departSpeed="34.44" departDelay="0.00" arrival="142.20" arrivalLane="e0_0" arrivalPos="4800.00" arrivalSpeed="34.23" duration="140.60" routeLength="4824.20" waitingTime="0.00" waitingCount="0" stopTime="0.00" timeLoss="0.49" rerouteNo="0" devices="tripinfo_CVToC.0 routing_CVToC.0 ssm_CVToC.0 toc_CVToC.0 driverstateCVToC.0" vType="vehLVOS869" speedFactor="0.95" vaporized=""/>
    <tripinfo id="CAVToC.1" depart="0.70" departLane="entry_1" departPos="141.00" departSpeed="34.09" departDelay="0.00" arrival="143.40" arrivalLane="e0_1" arrivalPos="4800.00" arrivalSpeed="34.01" duration="142.70" routeLength="4859.00" waitingTime="0.00" waitingCount="0" stopTime="0.00" timeLoss="0.14" rerouteNo="0" devices="tripinfo_CAVToC.1 routing_CAVToC.1 ssm_CAVToC.1 toc_CAVToC.1 driverstateCAVToC.1" vType="vehLVOS85" speedFactor="0.94" vaporized=""/>
    <tripinfo id="LV.1" depart="2.50" departLane="entry_0" departPos="86.22" departSpeed="42.96" departDelay="0.00" arrival="144.60" arrivalLane="e0_1" arrivalPos="4800.00" arrivalSpeed="37.04" duration="142.10" routeLength="4913.78" waitingTime="0.00" waitingCount="0" stopTime="0.00" timeLoss="27.65" rerouteNo="0" devices="tripinfo_LV.1 routing_LV.1 ssm_LV.1" vType="vehLVOS538" speedFactor="1.19" vaporized=""/>
    <tripinfo id="CVToC.1" depart="5.10" departLane="entry_1" departPos="5.60" departSpeed="35.42" departDelay="1.00" arrival="145.50" arrivalLane="e0_0" arrivalPos="4800.00" arrivalSpeed="39.07" duration="140.40" routeLength="4994.40" waitingTime="0.00" waitingCount="0" stopTime="0.00" timeLoss="30.33" rerouteNo="0" devices="tripinfo_CVToC.1 routing_CVToC.1 ssm_CVToC.1 toc_CVToC.1 driverstateCVToC.1" vType="vehLVOS77" speedFactor="1.26" vaporized=""/>
    <tripinfo id="LV.3" depart="4.20" departLane="entry_0" departPos="22.95" departSpeed="37.17" departDelay="0.30" arrival="145.90" arrivalLane="e0_1" arrivalPos="4800.00" arrivalSpeed="37.17" duration="141.70" routeLength="4977.05" waitingTime="0.00" waitingCount="0" stopTime="0.00" timeLoss="7.78" rerouteNo="0" devices="tripinfo_LV.3 routing_LV.3 ssm_LV.3" vType="vehLVOS180" speedFactor="1.03" vaporized=""/>
    <tripinfo id="CVToC.2" depart="7.40" departLane="entry_1" departPos="1.62" departSpeed="34.25" departDelay="0.80" arrival="147.20" arrivalLane="e0_1" arrivalPos="4800.00" arrivalSpeed="37.74" duration="139.80" routeLength="4998.38" waitingTime="0.00" waitingCount="0" stopTime="0.00" timeLoss="7.41" rerouteNo="0" devices="tripinfo_CVToC.2 routing_CVToC.2 ssm_CVToC.2 toc_CVToC.2 driverstateCVToC.2" vType="vehLVOS697" speedFactor="1.05" vaporized=""/>
    <tripinfo id="CAVToC.2" depart="2.20" departLane="entry_1" departPos="120.38" departSpeed="33.71" departDelay="0.00" arrival="148.80" arrivalLane="e0_0" arrivalPos="4800.00" arrivalSpeed="33.68" duration="146.60" routeLength="4879.62" waitingTime="0.00" waitingCount="0" stopTime="0.00" timeLoss="1.76" rerouteNo="0" devices="tripinfo_CAVToC.2 routing_CAVToC.2 ssm_CAVToC.2 toc_CAVToC.2 driverstateCAVToC.2" vType="vehLVOS9" speedFactor="0.93" vaporized=""/>
    <tripinfo id="LV.2" depart="2.60" departLane="entry_0" departPos="12.74" departSpeed="38.13" departDelay="0.00" arrival="150.10" arrivalLane="e0_1" arrivalPos="4800.00" arrivalSpeed="38.11" duration="147.50" routeLength="4987.26" waitingTime="0.00" waitingCount="0" stopTime="0.00" timeLoss="16.60" rerouteNo="0" devices="tripinfo_LV.2 routing_LV.2 ssm_LV.2" vType="vehLVOS68" speedFactor="1.06" vaporized=""/>
    <tripinfo id="CAVToC.3" depart="6.00" departLane="entry_0" departPos="1.87" departSpeed="35.69" departDelay="0.30" arrival="153.20" arrivalLane="e0_0" arrivalPos="4800.00" arrivalSpeed="39.14" duration="147.20" routeLength="4998.13" waitingTime="0.00" waitingCount="0" stopTime="0.00" timeLoss="19.51" rerouteNo="0" devices="tripinfo_CAVToC.3 routing_CAVToC.3 ssm_CAVToC.3 toc_CAVToC.3 driverstateCAVToC.3" vType="vehLVOS277" speedFactor="1.08" vaporized=""/>
    <tripinfo id="CAVToC.5" depart="9.60" departLane="entry_1" departPos="7.53" departSpeed="32.64" departDelay="1.20" arrival="162.80" arrivalLane="e0_1" arrivalPos="4800.00" arrivalSpeed="32.60" duration="153.20" routeLength="4992.47" waitingTime="0.00" waitingCount="0" stopTime="0.00" timeLoss="0.19" rerouteNo="0" devices="tripinfo_CAVToC.5 routing_CAVToC.5 ssm_CAVToC.5 toc_CAVToC.5 driverstateCAVToC.5" vType="vehLVOS491" speedFactor="0.90" vaporized=""/>
    <tripinfo id="CAVToC.4" depart="8.30" departLane="entry_0" departPos="4.02" departSpeed="33.57" departDelay="0.10" arrival="163.50" arrivalLane="e0_0" arrivalPos="4800.00" arrivalSpeed="33.32" duration="155.20" routeLength="4995.98" waitingTime="0.00" waitingCount="0" stopTime="0.00" timeLoss="15.96" rerouteNo="0" devices="tripinfo_CAVToC.4 routing_CAVToC.4 ssm_CAVToC.4 toc_CAVToC.4 driverstateCAVToC.4" vType="vehLVOS139" speedFactor="0.99" vaporized=""/>
    <tripinfo id="CVToC.4" depart="10.70" departLane="entry_0" departPos="7.65" departSpeed="33.31" departDelay="1.40" arrival="163.70" arrivalLane="e0_1" arrivalPos="4800.00" arrivalSpeed="34.03" duration="153.00" routeLength="4992.35" waitingTime="0.00" waitingCount="0" stopTime="0.00" timeLoss="10.46" rerouteNo="0" devices="tripinfo_CVToC.4 routing_CVToC.4 ssm_CVToC.4 toc_CVToC.4 driverstateCVToC.4" vType="vehLVOS20" speedFactor="0.97" vaporized=""/>
    <tripinfo id="CAVToC.6" depart="11.90" departLane="entry_1" departPos="0.56" departSpeed="33.36" departDelay="3.20" arrival="164.70" arrivalLane="e0_1" arrivalPos="4800.00" arrivalSpeed="35.00" duration="152.80" routeLength="4999.44" waitingTime="0.00" waitingCount="0" stopTime="0.00" timeLoss="24.13" rerouteNo="0" devices="tripinfo_CAVToC.6 routing_CAVToC.6 ssm_CAVToC.6 toc_CAVToC.6 driverstateCAVToC.6" vType="vehLVOS168" speedFactor="1.08" vaporized=""/>
    <tripinfo id="CVToC.3" depart="13.20" departLane="entry_0" departPos="8.56" departSpeed="33.24" departDelay="4.70" arrival="165.50" arrivalLane="e0_0" arrivalPos="4800.00" arrivalSpeed="36.71" duration="152.30" routeLength="4991.44" waitingTime="0.00" waitingCount="0" stopTime="0.00" timeLoss="19.51" rerouteNo="0" devices="tripinfo_CVToC.3 routing_CVToC.3 ssm_CVToC.3 toc_CVToC.3 driverstateCVToC.3" vType="vehLVOS19" speedFactor="1.04" vaporized=""/>
    <tripinfo id="CVToC.6" depart="13.80" departLane="entry_1" departPos="3.27" departSpeed="29.80" departDelay="1.50" arrival="181.50" arrivalLane="e0_1" arrivalPos="4800.00" arrivalSpeed="29.80" duration="167.70" routeLength="4996.73" waitingTime="0.00" waitingCount="0" stopTime="0.00" timeLoss="0.04" rerouteNo="0" devices="tripinfo_CVToC.6 routing_CVToC.6 ssm_CVToC.6 toc_CVToC.6 driverstateCVToC.6" vType="vehLVOS853" speedFactor="0.83" vaporized=""/>
    <tripinfo id="CVToC.5" depart="15.50" departLane="entry_0" departPos="16.30" departSpeed="33.29" departDelay="4.80" arrival="182.70" arrivalLane="e0_0" arrivalPos="4800.00" arrivalSpeed="30.71" duration="167.20" routeLength="4983.70" waitingTime="0.00" waitingCount="0" stopTime="0.00" timeLoss="19.19" rerouteNo="0" devices="tripinfo_CVToC.5 routing_CVToC.5 ssm_CVToC.5 toc_CVToC.5 driverstateCVToC.5" vType="vehLVOS863" speedFactor="0.93" vaporized=""/>
    <tripinfo id="CVToC.7" depart="16.50" departLane="entry_1" departPos="4.34" departSpeed="30.63" departDelay="0.90" arrival="184.30" arrivalLane="e0_1" arrivalPos="4800.00" arrivalSpeed="34.09" duration="167.80" routeLength="4995.66" waitingTime="0.00" waitingCount="0" stopTime="0.00" timeLoss="32.77" rerouteNo="0" devices="tripinfo_CVToC.7 routing_CVToC.7 ssm_CVToC.7 toc_CVToC.7 driverstateCVToC.7" vType="vehLVOS138" speedFactor="1.02" vaporized=""/>
    <tripinfo id="CAVToC.7" depart="17.90" departLane="entry_0" departPos="8.71" departSpeed="30.61" departDelay="2.60" arrival="186.40" arrivalLane="e0_0" arrivalPos="4800.00" arrivalSpeed="33.88" duration="168.50" routeLength="4991.29" waitingTime="0.00" waitingCount="0" stopTime="0.00" timeLoss="32.18" rerouteNo="0" devices="tripinfo_CAVToC.7 routing_CAVToC.7 ssm_CAVToC.7 toc_CAVToC.7 driverstateCAVToC.7" vType="vehLVOS224" speedFactor="1.01" vaporized=""/>
    <tripinfo id="CVToC.8" depart="19.00" departLane="entry_1" departPos="4.70" departSpeed="30.96" departDelay="2.20" arrival="187.70" arrivalLane="e0_1" arrivalPos="4800.00" arrivalSpeed="34.06" duration="168.70" routeLength="4995.30" waitingTime="0.00" waitingCount="0" stopTime="0.00" timeLoss="22.16" rerouteNo="0" devices="tripinfo_CVToC.8 routing_CVToC.8 ssm_CVToC.8 toc_CVToC.8 driverstateCVToC.8" vType="vehLVOS986" speedFactor="0.94" vaporized=""/>
    <tripinfo id="CAVToC.9" depart="20.70" departLane="entry_0" departPos="7.61" departSpeed="31.49" departDelay="0.60" arrival="189.80" arrivalLane="e0_0" arrivalPos="4800.00" arrivalSpeed="35.63" duration="169.10" routeLength="4992.39" waitingTime="0.00" waitingCount="0" stopTime="0.00" timeLoss="43.67" rerouteNo="0" devices="tripinfo_CAVToC.9 routing_CAVToC.9 ssm_CAVToC.9 toc_CAVToC.9 driverstateCAVToC.9" vType="vehLVOS610" speedFactor="1.10" vaporized=""/>
    <tripinfo id="LV.4" depart="23.50" departLane="entry_1" departPos="2.43" departSpeed="33.74" departDelay="13.40" arrival="189.90" arrivalLane="e0_1" arrivalPos="4800.00" arrivalSpeed="33.59" duration="166.40" routeLength="4997.57" waitingTime="0.00" waitingCount="0" stopTime="0.00" timeLoss="18.25" rerouteNo="0" devices="tripinfo_LV.4 routing_LV.4 ssm_LV.4" vType="vehLVOS826" speedFactor="0.93" vaporized=""/>
    <tripinfo id="CAVToC.8" depart="26.20" departLane="entry_1" departPos="0.56" departSpeed="33.40" departDelay="9.30" arrival="191.20" arrivalLane="e0_1" arrivalPos="4800.00" arrivalSpeed="36.97" duration="165.00" routeLength="4999.44" waitingTime="0.00" waitingCount="0" stopTime="0.00" timeLoss="48.42" rerouteNo="0" devices="tripinfo_CAVToC.8 routing_CAVToC.8 ssm_CAVToC.8 toc_CAVToC.8 driverstateCAVToC.8" vType="vehLVOS768" speedFactor="1.19" vaporized=""/>
    <tripinfo id="LV.5" depart="25.20" departLane="entry_0" departPos="3.28" departSpeed="40.06" departDelay="11.00" arrival="192.10" arrivalLane="e0_0" arrivalPos="4800.00" arrivalSpeed="37.30" duration="166.90" routeLength="4996.72" waitingTime="0.00" waitingCount="0" stopTime="0.00" timeLoss="42.10" rerouteNo="0" devices="tripinfo_LV.5 routing_LV.5 ssm_LV.5" vType="vehLVOS198" speedFactor="1.11" vaporized=""/>
    <tripinfo id="CVToC.9" depart="28.80" departLane="entry_1" departPos="7.45" departSpeed="33.70" departDelay="1.70" arrival="192.50" arrivalLane="e0_1" arrivalPos="4800.00" arrivalSpeed="35.35" duration="163.70" routeLength="4992.55" waitingTime="0.00" waitingCount="0" stopTime="0.00" timeLoss="25.00" rerouteNo="0" devices="tripinfo_CVToC.9 routing_CVToC.9 ssm_CVToC.9 toc_CVToC.9 driverstateCVToC.9" vType="vehLVOS477" speedFactor="1.00" vaporized=""/>
    <tripinfo id="LV.7" depart="27.60" departLane="entry_0" departPos="2.62" departSpeed="40.43" departDelay="1.20" arrival="193.30" arrivalLane="e0_1" arrivalPos="4800.00" arrivalSpeed="36.20" duration="165.70" routeLength="4997.38" waitingTime="0.00" waitingCount="0" stopTime="0.00" timeLoss="42.08" rerouteNo="0" devices="tripinfo_LV.7 routing_LV.7 ssm_LV.7" vType="vehLVOS383" speedFactor="1.12" vaporized=""/>
    <tripinfo id="CAVToC.11" depart="31.20" departLane="entry_1" departPos="11.41" departSpeed="33.21" departDelay="3.20" arrival="194.70" arrivalLane="e0_1" arrivalPos="4800.00" arrivalSpeed="34.99" duration="163.50" routeLength="4988.59" waitingTime="0.00" waitingCount="0" stopTime="0.00" timeLoss="21.68" rerouteNo="0" devices="tripinfo_CAVToC.11 routing_CAVToC.11 ssm_CAVToC.11 toc_CAVToC.11 driverstateCAVToC.11" vType="vehLVOS892" speedFactor="0.97" vaporized=""/>
    <tripinfo id="CAVToC.10" depart="29.70" departLane="entry_0" departPos="2.97" departSpeed="34.79" departDelay="2.90" arrival="195.70" arrivalLane="e0_0" arrivalPos="4800.00" arrivalSpeed="35.19" duration="166.00" routeLength="4997.03" waitingTime="0.00" waitingCount="0" stopTime="0.00" timeLoss="24.01" rerouteNo="0" devices="tripinfo_CAVToC.10 routing_CAVToC.10 ssm_CAVToC.10 toc_CAVToC.10 driverstateCAVToC.10" vType="vehLVOS914" speedFactor="0.98" vaporized=""/>
    <tripinfo id="CVToC.12" depart="33.20" departLane="entry_1" departPos="4.80" departSpeed="33.04" departDelay="0.70" arrival="197.10" arrivalLane="e0_1" arrivalPos="4800.00" arrivalSpeed="35.06" duration="163.90" routeLength="4995.20" waitingTime="0.00" waitingCount="0" stopTime="0.00" timeLoss="21.56" rerouteNo="0" devices="tripinfo_CVToC.12 routing_CVToC.12 ssm_CVToC.12 toc_CVToC.12 driverstateCVToC.12" vType="vehLVOS461" speedFactor="0.97" vaporized=""/>
    <tripinfo id="CVToC.11" depart="35.20" departLane="entry_0" departPos="13.86" departSpeed="34.40" departDelay="3.10" arrival="197.20" arrivalLane="e0_0" arrivalPos="4800.00" arrivalSpeed="35.22" duration="162.00" routeLength="4986.14" waitingTime="0.00" waitingCount="0" stopTime="0.00" timeLoss="28.40" rerouteNo="0" devices="tripinfo_CVToC.11 routing_CVToC.11 ssm_CVToC.11 toc_CVToC.11 driverstateCVToC.11" vType="vehLVOS842" speedFactor="1.03" vaporized=""/>
    <tripinfo id="LV.6" depart="32.70" departLane="entry_0" departPos="2.62" departSpeed="37.17" departDelay="17.00" arrival="199.00" arrivalLane="e0_1" arrivalPos="4800.00" arrivalSpeed="37.16" duration="166.30" routeLength="4997.38" waitingTime="0.00" waitingCount="0" stopTime="0.00" timeLoss="31.81" rerouteNo="0" devices="tripinfo_LV.6 routing_LV.6 ssm_LV.6" vType="vehLVOS298" speedFactor="1.03" vaporized=""/>
    <tripinfo id="CVToC.13" depart="39.80" departLane="entry_1" departPos="0.96" departSpeed="31.19" departDelay="5.70" arrival="199.80" arrivalLane="e0_1" arrivalPos="4800.00" arrivalSpeed="37.90" duration="160.00" routeLength="4999.04" waitingTime="0.00" waitingCount="0" stopTime="0.00" timeLoss="28.27" rerouteNo="0" devices="tripinfo_CVToC.13 routing_CVToC.13 ssm_CVToC.13 toc_CVToC.13 driverstateCVToC.13" vType="vehLVOS666" speedFactor="1.05" vaporized=""/>
    <tripinfo id="CAVToC.12" depart="35.50" departLane="entry_1" departPos="9.43" departSpeed="32.84" departDelay="5.90" arrival="200.50" arrivalLane="e0_0" arrivalPos="4800.00" arrivalSpeed="34.30" duration="165.00" routeLength="4990.57" waitingTime="0.00" waitingCount="0" stopTime="0.00" timeLoss="19.74" rerouteNo="0" devices="tripinfo_CAVToC.12 routing_CAVToC.12 ssm_CAVToC.12 toc_CAVToC.12 driverstateCAVToC.12" vType="vehLVOS374" speedFactor="0.95" vaporized=""/>
    <tripinfo id="CVToC.10" depart="42.60" departLane="entry_1" departPos="3.06" departSpeed="31.91" departDelay="11.80" arrival="201.90" arrivalLane="e0_1" arrivalPos="4800.00" arrivalSpeed="38.49" duration="159.30" routeLength="4996.94" waitingTime="0.00" waitingCount="0" stopTime="0.00" timeLoss="29.56" rerouteNo="0" devices="tripinfo_CVToC.10 routing_CVToC.10 ssm_CVToC.10 toc_CVToC.10 driverstateCVToC.10" vType="vehLVOS51" speedFactor="1.07" vaporized=""/>
    <tripinfo id="CAVToC.13" depart="37.40" departLane="entry_0" departPos="1.76" departSpeed="33.05" departDelay="5.80" arrival="203.90" arrivalLane="e0_0" arrivalPos="4800.00" arrivalSpeed="40.39" duration="166.50" routeLength="4998.24" waitingTime="0.00" waitingCount="0" stopTime="0.00" timeLoss="42.82" rerouteNo="0" devices="tripinfo_CAVToC.13 routing_CAVToC.13 ssm_CAVToC.13 toc_CAVToC.13 driverstateCAVToC.13" vType="vehLVOS292" speedFactor="1.12" vaporized=""/>
    <tripinfo id="CVToC.14" depart="40.50" departLane="entry_0" departPos="12.81" departSpeed="28.57" departDelay="4.60" arrival="204.40" arrivalLane="e0_1" arrivalPos="4800.00" arrivalSpeed="36.55" duration="163.90" routeLength="4987.19" waitingTime="0.00" waitingCount="0" stopTime="0.00" timeLoss="27.44" rerouteNo="0" devices="tripinfo_CVToC.14 routing_CVToC.14 ssm_CVToC.14 toc_CVToC.14 driverstateCVToC.14" vType="vehLVOS95" speedFactor="1.01" vaporized=""/>
    <tripinfo id="CAVToC.15" depart="37.60" departLane="entry_1" departPos="15.21" departSpeed="30.33" departDelay="2.80" arrival="207.20" arrivalLane="e0_0" arrivalPos="4800.00" arrivalSpeed="30.24" duration="169.60" routeLength="4984.79" waitingTime="0.00" waitingCount="0" stopTime="0.00" timeLoss="5.16" rerouteNo="0" devices="tripinfo_CAVToC.15 routing_CAVToC.15 ssm_CAVToC.15 toc_CAVToC.15 driverstateCAVToC.15" vType="vehLVOS235" speedFactor="0.84" vaporized=""/>
    <tripinfo id="LV.10" depart="46.70" departLane="entry_1" departPos="7.50" departSpeed="33.70" departDelay="9.30" arrival="208.50" arrivalLane="e0_1" arrivalPos="4800.00" arrivalSpeed="33.68" duration="161.80" routeLength="4992.50" waitingTime="0.00" waitingCount="0" stopTime="0.00" timeLoss="13.63" rerouteNo="0" devices="tripinfo_LV.10 routing_LV.10 ssm_LV.10" vType="vehLVOS523" speedFactor="0.93" vaporized=""/>
    <tripinfo id="CAVToC.16" depart="45.00" departLane="entry_1" departPos="7.45" departSpeed="32.01" departDelay="6.90" arrival="209.00" arrivalLane="e0_0" arrivalPos="4800.00" arrivalSpeed="32.29" duration="164.00" routeLength="4992.55" waitingTime="0.00" waitingCount="0" stopTime="0.00" timeLoss="14.97" rerouteNo="0" devices="tripinfo_CAVToC.16 routing_CAVToC.16 ssm_CAVToC.16 toc_CAVToC.16 driverstateCAVToC.16" vType="vehLVOS961" speedFactor="0.93" vaporized=""/>
    <tripinfo id="CAVToC.17" depart="43.10" departLane="entry_0" departPos="13.96" departSpeed="29.12" departDelay="4.90" arrival="209.90" arrivalLane="e0_0" arrivalPos="4800.00" arrivalSpeed="32.88" duration="166.80" routeLength="4986.04" waitingTime="0.00" waitingCount="0" stopTime="0.00" timeLoss="22.21" rerouteNo="0" devices="tripinfo_CAVToC.17 routing_CAVToC.17 ssm_CAVToC.17 toc_CAVToC.17 driverstateCAVToC.17" vType="vehLVOS13" speedFactor="0.96" vaporized=""/>
    <tripinfo id="LV.11" depart="47.30" departLane="entry_1" departPos="1.87" departSpeed="32.80" departDelay="2.70" arrival="212.50" arrivalLane="e0_1" arrivalPos="4800.00" arrivalSpeed="32.70" duration="165.20" routeLength="4998.13" waitingTime="0.00" waitingCount="0" stopTime="0.00" timeLoss="12.79" rerouteNo="0" devices="tripinfo_LV.11 routing_LV.11 ssm_LV.11" vType="vehLVOS731" speedFactor="0.91" vaporized=""/>
    <tripinfo id="CAVToC.14" depart="45.70" departLane="entry_0" departPos="6.09" departSpeed="29.93" departDelay="12.60" arrival="213.30" arrivalLane="e0_0" arrivalPos="4800.00" arrivalSpeed="33.56" duration="167.60" routeLength="4993.91" waitingTime="0.00" waitingCount="0" stopTime="0.00" timeLoss="35.51" rerouteNo="0" devices="tripinfo_CAVToC.14 routing_CAVToC.14 ssm_CAVToC.14 toc_CAVToC.14 driverstateCAVToC.14" vType="vehLVOS271" speedFactor="1.05" vaporized=""/>
    <tripinfo id="CAVToC.18" depart="49.70" departLane="entry_1" departPos="0.15" departSpeed="32.90" departDelay="4.50" arrival="213.50" arrivalLane="e0_1" arrivalPos="4800.00" arrivalSpeed="34.43" duration="163.80" routeLength="4999.85" waitingTime="0.00" waitingCount="0" stopTime="0.00" timeLoss="27.55" rerouteNo="0" devices="tripinfo_CAVToC.18 routing_CAVToC.18 ssm_CAVToC.18 toc_CAVToC.18 driverstateCAVToC.18" vType="vehLVOS793" speedFactor="1.02" vaporized=""/>
    <tripinfo id="CVToC.17" depart="53.40" departLane="entry_1" departPos="39.61" departSpeed="32.92" departDelay="7.50" arrival="215.30" arrivalLane="e0_1" arrivalPos="4800.00" arrivalSpeed="37.01" duration="161.90" routeLength="4960.39" waitingTime="0.00" waitingCount="0" stopTime="0.00" timeLoss="28.52" rerouteNo="0" devices="tripinfo_CVToC.17 routing_CVToC.17 ssm_CVToC.17 toc_CVToC.17 driverstateCVToC.17" vType="vehLVOS168" speedFactor="1.03" vaporized=""/>
    <tripinfo id="CVToC.15" depart="48.00" departLane="entry_0" departPos="0.19" departSpeed="30.19" departDelay="3.40" arrival="216.70" arrivalLane="e0_0" arrivalPos="4800.00" arrivalSpeed="33.31" duration="168.70" routeLength="4999.81" waitingTime="0.00" waitingCount="0" stopTime="0.00" timeLoss="18.54" rerouteNo="0" devices="tripinfo_CVToC.15 routing_CVToC.15 ssm_CVToC.15 toc_CVToC.15 driverstateCVToC.15" vType="vehLVOS719" speedFactor="0.92" vaporized=""/>
    <tripinfo id="CVToC.16" depart="51.40" departLane="entry_0" departPos="15.57" departSpeed="30.96" departDelay="5.80" arrival="218.20" arrivalLane="e0_0" arrivalPos="4800.00" arrivalSpeed="35.63" duration="166.80" routeLength="4984.43" waitingTime="0.00" waitingCount="0" stopTime="0.00" timeLoss="41.76" rerouteNo="0" devices="tripinfo_CVToC.16 routing_CVToC.16 ssm_CVToC.16 toc_CVToC.16 driverstateCVToC.16" vType="vehLVOS240" speedFactor="1.10" vaporized=""/>
    <tripinfo id="CVToC.19" depart="55.20" departLane="entry_1" departPos="7.78" departSpeed="33.90" departDelay="1.00" arrival="219.10" arrivalLane="e0_1" arrivalPos="4800.00" arrivalSpeed="41.44" duration="163.90" routeLength="4992.22" waitingTime="0.00" waitingCount="0" stopTime="0.00" timeLoss="49.09" rerouteNo="0" devices="tripinfo_CVToC.19 routing_CVToC.19 ssm_CVToC.19 toc_CVToC.19 driverstateCVToC.19" vType="vehLVOS226" speedFactor="1.20" vaporized=""/>
    <tripinfo id="CVToC.18" depart="54.70" departLane="entry_0" departPos="36.50" departSpeed="31.44" departDelay="1.50" arrival="220.00" arrivalLane="e0_0" arrivalPos="4800.00" arrivalSpeed="38.50" duration="165.30" routeLength="4963.50" waitingTime="0.00" waitingCount="0" stopTime="0.00" timeLoss="36.35" rerouteNo="0" devices="tripinfo_CVToC.18 routing_CVToC.18 ssm_CVToC.18 toc_CVToC.18 driverstateCVToC.18" vType="vehLVOS102" speedFactor="1.07" vaporized=""/>
    <tripinfo id="CAVToC.19" depart="58.80" departLane="entry_1" departPos="8.56" departSpeed="32.92" departDelay="1.70" arrival="220.10" arrivalLane="e0_1" arrivalPos="4800.00" arrivalSpeed="38.58" duration="161.30" routeLength="4991.44" waitingTime="0.00" waitingCount="0" stopTime="0.00" timeLoss="32.17" rerouteNo="0" devices="tripinfo_CAVToC.19 routing_CAVToC.19 ssm_CAVToC.19 toc_CAVToC.19 driverstateCAVToC.19" vType="vehLVOS999" speedFactor="1.07" vaporized=""/>
    <tripinfo id="CVToC.22" depart="62.60" departLane="entry_1" departPos="39.18" departSpeed="33.87" departDelay="4.80" arrival="221.90" arrivalLane="e0_1" arrivalPos="4800.00" arrivalSpeed="40.05" duration="159.30" routeLength="4960.82" waitingTime="0.00" waitingCount="0" stopTime="0.00" timeLoss="44.76" rerouteNo="0" devices="tripinfo_CVToC.22 routing_CVToC.22 ssm_CVToC.22 toc_CVToC.22 driverstateCVToC.22" vType="vehLVOS359" speedFactor="1.20" vaporized=""/>
    <tripinfo id="CVToC.23" depart="64.30" departLane="entry_1" departPos="10.88" departSpeed="34.48" departDelay="3.10" arrival="223.40" arrivalLane="e0_1" arrivalPos="4800.00" arrivalSpeed="40.29" duration="159.10" routeLength="4989.12" waitingTime="0.00" waitingCount="0" stopTime="0.00" timeLoss="35.20" rerouteNo="0" devices="tripinfo_CVToC.23 routing_CVToC.23 ssm_CVToC.23 toc_CVToC.23 driverstateCVToC.23" vType="vehLVOS789" speedFactor="1.12" vaporized=""/>
    <tripinfo id="LV.13" depart="56.20" departLane="entry_1" departPos="10.92" departSpeed="32.36" departDelay="1.40" arrival="223.60" arrivalLane="e0_0" arrivalPos="4800.00" arrivalSpeed="32.31" duration="167.40" routeLength="4989.08" waitingTime="0.00" waitingCount="0" stopTime="0.00" timeLoss="13.20" rerouteNo="0" devices="tripinfo_LV.13 routing_LV.13 ssm_LV.13" vType="vehLVOS73" speedFactor="0.90" vaporized=""/>
    <tripinfo id="CVToC.21" depart="59.80" departLane="entry_0" departPos="1.75" departSpeed="30.95" departDelay="2.90" arrival="224.30" arrivalLane="e0_1" arrivalPos="4800.00" arrivalSpeed="37.77" duration="164.50" routeLength="4998.25" waitingTime="0.00" waitingCount="0" stopTime="0.00" timeLoss="32.23" rerouteNo="0" devices="tripinfo_CVToC.21 routing_CVToC.21 ssm_CVToC.21 toc_CVToC.21 driverstateCVToC.21" vType="vehLVOS510" speedFactor="1.05" vaporized=""/>
    <tripinfo id="CVToC.20" depart="57.20" departLane="entry_0" departPos="34.99" departSpeed="31.77" departDelay="0.40" arrival="225.70" arrivalLane="e0_0" arrivalPos="4800.00" arrivalSpeed="35.40" duration="168.50" routeLength="4965.01" waitingTime="0.00" waitingCount="0" stopTime="0.00" timeLoss="32.25" rerouteNo="0" devices="tripinfo_CVToC.20 routing_CVToC.20 ssm_CVToC.20 toc_CVToC.20 driverstateCVToC.20" vType="vehLVOS975" speedFactor="1.01" vaporized=""/>
    <tripinfo id="LV.14" depart="59.00" departLane="entry_0" departPos="58.30" departSpeed="30.21" departDelay="3.80" arrival="232.50" arrivalLane="e0_0" arrivalPos="4800.00" arrivalSpeed="30.18" duration="173.50" routeLength="4941.70" waitingTime="0.00" waitingCount="0" stopTime="0.00" timeLoss="9.86" rerouteNo="0" devices="tripinfo_LV.14 routing_LV.14 ssm_LV.14" vType="vehLVOS392" speedFactor="0.84" vaporized=""/>
    <tripinfo id="LV.12" depart="70.90" departLane="entry_1" departPos="17.85" departSpeed="33.74" departDelay="21.50" arrival="237.30" arrivalLane="e0_1" arrivalPos="4800.00" arrivalSpeed="33.73" duration="166.40" routeLength="4982.15" waitingTime="0.00" waitingCount="0" stopTime="0.00" timeLoss="18.70" rerouteNo="0" devices="tripinfo_LV.12 routing_LV.12 ssm_LV.12" vType="vehLVOS592" speedFactor="0.93" vaporized=""/>
    <tripinfo id="LV.9" depart="67.30" departLane="entry_0" departPos="2.46" departSpeed="37.38" departDelay="30.00" arrival="239.10" arrivalLane="e0_1" arrivalPos="4800.00" arrivalSpeed="36.41" duration="171.80" routeLength="4997.54" waitingTime="0.00" waitingCount="0" stopTime="0.00" timeLoss="38.12" rerouteNo="0" devices="tripinfo_LV.9 routing_LV.9 ssm_LV.9" vType="vehLVOS736" speedFactor="1.04" vaporized=""/>
    <tripinfo id="CAVToC.23" depart="66.70" departLane="entry_1" departPos="26.03" departSpeed="31.01" departDelay="2.40" arrival="240.30" arrivalLane="e0_0" arrivalPos="4800.00" arrivalSpeed="30.97" duration="173.60" routeLength="4973.97" waitingTime="0.00" waitingCount="0" stopTime="0.00" timeLoss="13.17" rerouteNo="0" devices="tripinfo_CAVToC.23 routing_CAVToC.23 ssm_CAVToC.23 toc_CAVToC.23 driverstateCAVToC.23" vType="vehLVOS554" speedFactor="0.86" vaporized=""/>
    <tripinfo id="CAVToC.20" depart="64.20" departLane="entry_0" departPos="67.20" departSpeed="29.98" departDelay="3.40" arrival="242.40" arrivalLane="e0_0" arrivalPos="4800.00" arrivalSpeed="32.18" duration="178.20" routeLength="4932.80" waitingTime="0.00" waitingCount="0" stopTime="0.00" timeLoss="25.18" rerouteNo="0" devices="tripinfo_CAVToC.20 routing_CAVToC.20 ssm_CAVToC.20 toc_CAVToC.20 driverstateCAVToC.20" vType="vehLVOS477" speedFactor="0.89" vaporized=""/>
    <tripinfo id="CVToC.25" depart="75.40" departLane="entry_1" departPos="7.37" departSpeed="33.15" departDelay="10.20" arrival="242.40" arrivalLane="e0_1" arrivalPos="4800.00" arrivalSpeed="38.78" duration="167.00" routeLength="4992.63" waitingTime="0.00" waitingCount="0" stopTime="0.00" timeLoss="38.46" rerouteNo="0" devices="tripinfo_CVToC.25 routing_CVToC.25 ssm_CVToC.25 toc_CVToC.25 driverstateCVToC.25" vType="vehLVOS687" speedFactor="1.08" vaporized=""/>