<?xml version="1.0" encoding="UTF-8"?>

<!-- generated on 09/23/20 08:28:59 by Eclipse SUMO Version 1.6.0
<configuration xmlns:xsi="http://www.w3.org/2001/XMLSchema-instance" xsi:noNamespaceSchemaLocation="http://sumo.dlr.de/xsd/sumoConfiguration.xsd">

    <input>
        <net-file value="scenario/UC5_1.net.xml"/>
        <route-files value="scenario/routes_trafficMix_0_trafficDemand_1_driverBehaviour_OS_seed_0.xml"/>
        <additional-files value="scenario/additionalsOutput_trafficMix_0_trafficDemand_1_driverBehaviour_OS_seed_0.xml,scenario/vTypesCAVToC_OS.add.xml,scenario/vTypesCVToC_OS.add.xml,scenario/vTypesLV_OS.add.xml,scenario/shapes.add.xml,scenario/view.add.xml"/>
    </input>

    <output>
        <tripinfo-output value="C:\Users\laborknecht\Aris\workspace\ma-branch\tor-distribution/outputs/simulations/DQN__2020-09-22_13-29-46__20200923-071300/tripinfo_8.xml"/>
    </output>

    <time>
        <step-length value="0.1"/>
    </time>

    <processing>
        <step-method.ballistic value="true"/>
        <ignore-route-errors value="true"/>
        <lanechange.duration value="2.5"/>
    </processing>

    <report>
        <no-step-log value="true"/>
    </report>

    <toc_device>
        <device.toc.ogNewTimeHeadway value="100"/>
        <device.toc.ogNewSpaceHeadway value="5"/>
        <device.toc.ogMaxDecel value="1"/>
        <device.toc.ogChangeRate value="1"/>
    </toc_device>

    <traci_server>
        <remote-port value="50572"/>
    </traci_server>

    <random_number>
        <seed value="1032"/>
    </random_number>

    <gui_only>
        <tracker-interval value="0.1"/>
    </gui_only>

</configuration>
-->

<tripinfos xmlns:xsi="http://www.w3.org/2001/XMLSchema-instance" xsi:noNamespaceSchemaLocation="http://sumo.dlr.de/xsd/tripinfo_file.xsd">
    <tripinfo id="LV.0" depart="2.40" departLane="entry_1" departPos="126.61" departSpeed="41.64" departDelay="0.00" arrival="120.80" arrivalLane="e0_0" arrivalPos="4800.00" arrivalSpeed="41.64" duration="118.40" routeLength="4873.39" waitingTime="0.00" waitingCount="0" stopTime="0.00" timeLoss="1.35" rerouteNo="0" devices="tripinfo_LV.0 routing_LV.0 ssm_LV.0" vType="vehLVOS594" speedFactor="1.15" vaporized=""/>
    <tripinfo id="CAVToC.1" depart="1.90" departLane="entry_1" departPos="199.90" departSpeed="39.24" departDelay="0.00" arrival="124.50" arrivalLane="e0_1" arrivalPos="4800.00" arrivalSpeed="39.23" duration="122.60" routeLength="4800.10" waitingTime="0.00" waitingCount="0" stopTime="0.00" timeLoss="0.21" rerouteNo="0" devices="tripinfo_CAVToC.1 routing_CAVToC.1 ssm_CAVToC.1 toc_CAVToC.1 driverstateCAVToC.1" vType="vehLVOS570" speedFactor="1.09" vaporized=""/>
    <tripinfo id="CVToC.1" depart="4.00" departLane="entry_1" departPos="111.63" departSpeed="36.44" departDelay="0.00" arrival="130.90" arrivalLane="e0_1" arrivalPos="4800.00" arrivalSpeed="38.59" duration="126.90" routeLength="4888.37" waitingTime="0.00" waitingCount="0" stopTime="0.00" timeLoss="0.49" rerouteNo="0" devices="tripinfo_CVToC.1 routing_CVToC.1 ssm_CVToC.1 toc_CVToC.1 driverstateCVToC.1" vType="vehLVOS974" speedFactor="1.07" vaporized=""/>
    <tripinfo id="CAVToC.0" depart="0.10" departLane="entry_0" departPos="199.90" departSpeed="36.04" departDelay="0.00" arrival="133.40" arrivalLane="e0_0" arrivalPos="4800.00" arrivalSpeed="36.03" duration="133.30" routeLength="4800.10" waitingTime="0.00" waitingCount="0" stopTime="0.00" timeLoss="0.02" rerouteNo="0" devices="tripinfo_CAVToC.0 routing_CAVToC.0 ssm_CAVToC.0 toc_CAVToC.0 driverstateCAVToC.0" vType="vehLVOS610" speedFactor="1.00" vaporized=""/>
    <tripinfo id="CVToC.0" depart="1.80" departLane="entry_0" departPos="182.87" departSpeed="36.26" departDelay="0.00" arrival="134.50" arrivalLane="e0_1" arrivalPos="4800.00" arrivalSpeed="37.17" duration="132.70" routeLength="4817.13" waitingTime="0.00" waitingCount="0" stopTime="0.00" timeLoss="3.20" rerouteNo="0" devices="tripinfo_CVToC.0 routing_CVToC.0 ssm_CVToC.0 toc_CVToC.0 driverstateCVToC.0" vType="vehLVOS323" speedFactor="1.03" vaporized=""/>
    <tripinfo id="LV.1" depart="2.90" departLane="entry_0" departPos="197.62" departSpeed="35.57" departDelay="0.00" arrival="138.10" arrivalLane="e0_0" arrivalPos="4800.00" arrivalSpeed="35.50" duration="135.20" routeLength="4802.38" waitingTime="0.00" waitingCount="0" stopTime="0.00" timeLoss="0.17" rerouteNo="0" devices="tripinfo_LV.1 routing_LV.1 ssm_LV.1" vType="vehLVOS125" speedFactor="0.99" vaporized=""/>
    <tripinfo id="CAVToC.4" depart="6.80" departLane="entry_1" departPos="136.84" departSpeed="37.32" departDelay="0.00" arrival="138.40" arrivalLane="e0_1" arrivalPos="4800.00" arrivalSpeed="37.28" duration="131.60" routeLength="4863.16" waitingTime="0.00" waitingCount="0" stopTime="0.00" timeLoss="1.24" rerouteNo="0" devices="tripinfo_CAVToC.4 routing_CAVToC.4 ssm_CAVToC.4 toc_CAVToC.4 driverstateCAVToC.4" vType="vehLVOS598" speedFactor="1.03" vaporized=""/>
    <tripinfo id="CAVToC.2" depart="3.20" departLane="entry_0" departPos="121.08" departSpeed="36.18" departDelay="0.00" arrival="139.50" arrivalLane="e0_0" arrivalPos="4800.00" arrivalSpeed="35.33" duration="136.30" routeLength="4878.92" waitingTime="0.00" waitingCount="0" stopTime="0.00" timeLoss="19.83" rerouteNo="0" devices="tripinfo_CAVToC.2 routing_CAVToC.2 ssm_CAVToC.2 toc_CAVToC.2 driverstateCAVToC.2" vType="vehLVOS439" speedFactor="1.16" vaporized=""/>
    <tripinfo id="LV.2" depart="8.30" departLane="entry_1" departPos="70.26" departSpeed="39.63" departDelay="0.10" arrival="140.10" arrivalLane="e0_1" arrivalPos="4800.00" arrivalSpeed="39.62" duration="131.80" routeLength="4929.74" waitingTime="0.00" waitingCount="0" stopTime="0.00" timeLoss="7.31" rerouteNo="0" devices="tripinfo_LV.2 routing_LV.2 ssm_LV.2" vType="vehLVOS984" speedFactor="1.10" vaporized=""/>
    <tripinfo id="CVToC.3" depart="10.00" departLane="entry_1" departPos="61.00" departSpeed="35.46" departDelay="0.00" arrival="149.60" arrivalLane="e0_1" arrivalPos="4800.00" arrivalSpeed="35.37" duration="139.60" routeLength="4939.00" waitingTime="0.00" waitingCount="0" stopTime="0.00" timeLoss="0.27" rerouteNo="0" devices="tripinfo_CVToC.3 routing_CVToC.3 ssm_CVToC.3 toc_CVToC.3 driverstateCVToC.3" vType="vehLVOS15" speedFactor="0.98" vaporized=""/>
    <tripinfo id="CAVToC.3" depart="4.20" departLane="entry_0" departPos="85.67" departSpeed="33.73" departDelay="0.00" arrival="152.00" arrivalLane="e0_0" arrivalPos="4800.00" arrivalSpeed="33.73" duration="147.80" routeLength="4914.33" waitingTime="0.00" waitingCount="0" stopTime="0.00" timeLoss="2.03" rerouteNo="0" devices="tripinfo_CAVToC.3 routing_CAVToC.3 ssm_CAVToC.3 toc_CAVToC.3 driverstateCAVToC.3" vType="vehLVOS768" speedFactor="0.93" vaporized=""/>
    <tripinfo id="LV.3" depart="11.10" departLane="entry_0" departPos="13.11" departSpeed="35.84" departDelay="0.70" arrival="154.70" arrivalLane="e0_1" arrivalPos="4800.00" arrivalSpeed="35.81" duration="143.60" routeLength="4986.89" waitingTime="0.00" waitingCount="0" stopTime="0.00" timeLoss="4.46" rerouteNo="0" devices="tripinfo_LV.3 routing_LV.3 ssm_LV.3" vType="vehLVOS369" speedFactor="0.99" vaporized=""/>
    <tripinfo id="CVToC.4" depart="13.20" departLane="entry_1" departPos="11.82" departSpeed="32.87" departDelay="1.30" arrival="155.90" arrivalLane="e0_1" arrivalPos="4800.00" arrivalSpeed="37.84" duration="142.70" routeLength="4988.18" waitingTime="0.00" waitingCount="0" stopTime="0.00" timeLoss="12.65" rerouteNo="0" devices="tripinfo_CVToC.4 routing_CVToC.4 ssm_CVToC.4 toc_CVToC.4 driverstateCVToC.4" vType="vehLVOS690" speedFactor="1.06" vaporized=""/>
    <tripinfo id="CAVToC.9" depart="17.60" departLane="entry_1" departPos="0.51" departSpeed="30.69" departDelay="1.20" arrival="156.90" arrivalLane="e0_1" arrivalPos="4800.00" arrivalSpeed="38.65" duration="139.30" routeLength="4999.49" waitingTime="0.00" waitingCount="0" stopTime="0.00" timeLoss="13.60" rerouteNo="0" devices="tripinfo_CAVToC.9 routing_CAVToC.9 ssm_CAVToC.9 toc_CAVToC.9 driverstateCAVToC.9" vType="vehLVOS668" speedFactor="1.10" vaporized=""/>
    <tripinfo id="CAVToC.5" depart="6.90" departLane="entry_0" departPos="107.96" departSpeed="32.20" departDelay="0.00" arrival="159.60" arrivalLane="e0_0" arrivalPos="4800.00" arrivalSpeed="32.20" duration="152.70" routeLength="4892.04" waitingTime="0.00" waitingCount="0" stopTime="0.00" timeLoss="0.76" rerouteNo="0" devices="tripinfo_CAVToC.5 routing_CAVToC.5 ssm_CAVToC.5 toc_CAVToC.5 driverstateCAVToC.5" vType="vehLVOS174" speedFactor="0.89" vaporized=""/>
    <tripinfo id="CVToC.9" depart="20.40" departLane="entry_1" departPos="3.68" departSpeed="31.33" departDelay="1.70" arrival="159.60" arrivalLane="e0_1" arrivalPos="4800.00" arrivalSpeed="37.29" duration="139.20" routeLength="4996.32" waitingTime="0.00" waitingCount="0" stopTime="0.00" timeLoss="5.55" rerouteNo="0" devices="tripinfo_CVToC.9 routing_CVToC.9 ssm_CVToC.9 toc_CVToC.9 driverstateCVToC.9" vType="vehLVOS642" speedFactor="1.04" vaporized=""/>
    <tripinfo id="CVToC.2" depart="7.90" departLane="entry_0" departPos="59.83" departSpeed="32.79" departDelay="0.00" arrival="160.70" arrivalLane="e0_0" arrivalPos="4800.00" arrivalSpeed="33.35" duration="152.80" routeLength="4940.17" waitingTime="0.00" waitingCount="0" stopTime="0.00" timeLoss="18.94" rerouteNo="0" devices="tripinfo_CVToC.2 routing_CVToC.2 ssm_CVToC.2 toc_CVToC.2 driverstateCVToC.2" vType="vehLVOS536" speedFactor="1.02" vaporized=""/>
    <tripinfo id="CVToC.10" depart="23.30" departLane="entry_1" departPos="4.50" departSpeed="32.10" departDelay="3.70" arrival="161.20" arrivalLane="e0_1" arrivalPos="4800.00" arrivalSpeed="39.70" duration="137.90" routeLength="4995.50" waitingTime="0.00" waitingCount="0" stopTime="0.00" timeLoss="12.10" rerouteNo="0" devices="tripinfo_CVToC.10 routing_CVToC.10 ssm_CVToC.10 toc_CVToC.10 driverstateCVToC.10" vType="vehLVOS822" speedFactor="1.10" vaporized=""/>
    <tripinfo id="CVToC.12" depart="25.80" departLane="entry_1" departPos="0.10" departSpeed="32.56" departDelay="4.80" arrival="162.70" arrivalLane="e0_1" arrivalPos="4800.00" arrivalSpeed="37.85" duration="136.90" routeLength="4999.90" waitingTime="0.00" waitingCount="0" stopTime="0.00" timeLoss="4.87" rerouteNo="0" devices="tripinfo_CVToC.12 routing_CVToC.12 ssm_CVToC.12 toc_CVToC.12 driverstateCVToC.12" vType="vehLVOS848" speedFactor="1.05" vaporized=""/>
    <tripinfo id="CAVToC.8" depart="16.20" departLane="entry_0" departPos="6.28" departSpeed="33.41" departDelay="0.70" arrival="165.50" arrivalLane="e0_1" arrivalPos="4800.00" arrivalSpeed="38.25" duration="149.30" routeLength="4993.72" waitingTime="0.00" waitingCount="0" stopTime="0.00" timeLoss="18.71" rerouteNo="0" devices="tripinfo_CAVToC.8 routing_CAVToC.8 ssm_CAVToC.8 toc_CAVToC.8 driverstateCAVToC.8" vType="vehLVOS757" speedFactor="1.06" vaporized=""/>
    <tripinfo id="CAVToC.6" depart="10.30" departLane="entry_1" departPos="2.20" departSpeed="32.13" departDelay="0.10" arrival="166.80" arrivalLane="e0_0" arrivalPos="4800.00" arrivalSpeed="32.09" duration="156.50" routeLength="4997.80" waitingTime="0.00" waitingCount="0" stopTime="0.00" timeLoss="0.92" rerouteNo="0" devices="tripinfo_CAVToC.6 routing_CAVToC.6 ssm_CAVToC.6 toc_CAVToC.6 driverstateCAVToC.6" vType="vehLVOS2" speedFactor="0.89" vaporized=""/>
    <tripinfo id="CAVToC.7" depart="14.70" departLane="entry_0" departPos="42.39" departSpeed="33.15" departDelay="0.10" arrival="166.80" arrivalLane="e0_1" arrivalPos="4800.00" arrivalSpeed="40.10" duration="152.10" routeLength="4957.61" waitingTime="0.00" waitingCount="0" stopTime="0.00" timeLoss="31.22" rerouteNo="0" devices="tripinfo_CAVToC.7 routing_CAVToC.7 ssm_CAVToC.7 toc_CAVToC.7 driverstateCAVToC.7" vType="vehLVOS851" speedFactor="1.14" vaporized=""/>
    <tripinfo id="CVToC.13" depart="28.10" departLane="entry_1" departPos="1.80" departSpeed="32.19" departDelay="4.40" arrival="177.60" arrivalLane="e0_0" arrivalPos="4800.00" arrivalSpeed="33.70" duration="149.50" routeLength="4998.20" waitingTime="0.00" waitingCount="0" stopTime="0.00" timeLoss="1.54" rerouteNo="0" devices="tripinfo_CVToC.13 routing_CVToC.13 ssm_CVToC.13 toc_CVToC.13 driverstateCVToC.13" vType="vehLVOS234" speedFactor="0.94" vaporized=""/>
    <tripinfo id="CAVToC.10" depart="22.30" departLane="entry_0" departPos="20.82" departSpeed="28.52" departDelay="3.10" arrival="181.60" arrivalLane="e0_0" arrivalPos="4800.00" arrivalSpeed="32.61" duration="159.30" routeLength="4979.18" waitingTime="0.00" waitingCount="0" stopTime="0.00" timeLoss="6.76" rerouteNo="0" devices="tripinfo_CAVToC.10 routing_CAVToC.10 ssm_CAVToC.10 toc_CAVToC.10 driverstateCAVToC.10" vType="vehLVOS546" speedFactor="0.90" vaporized=""/>
    <tripinfo id="CVToC.6" depart="15.50" departLane="entry_1" departPos="26.03" departSpeed="29.55" departDelay="0.20" arrival="184.40" arrivalLane="e0_0" arrivalPos="4800.00" arrivalSpeed="29.52" duration="168.90" routeLength="4973.97" waitingTime="0.00" waitingCount="0" stopTime="0.00" timeLoss="0.55" rerouteNo="0" devices="tripinfo_CVToC.6 routing_CVToC.6 ssm_CVToC.6 toc_CVToC.6 driverstateCVToC.6" vType="vehLVOS198" speedFactor="0.82" vaporized=""/>
    <tripinfo id="CVToC.7" depart="19.10" departLane="entry_0" departPos="3.64" departSpeed="28.15" departDelay="2.50" arrival="185.40" arrivalLane="e0_0" arrivalPos="4800.00" arrivalSpeed="31.42" duration="166.30" routeLength="4996.36" waitingTime="0.00" waitingCount="0" stopTime="0.00" timeLoss="38.01" rerouteNo="0" devices="tripinfo_CVToC.7 routing_CVToC.7 ssm_CVToC.7 toc_CVToC.7 driverstateCVToC.7" vType="vehLVOS83" speedFactor="1.08" vaporized=""/>
    <tripinfo id="CAVToC.11" depart="30.60" departLane="entry_1" departPos="13.69" departSpeed="31.30" departDelay="5.20" arrival="188.60" arrivalLane="e0_1" arrivalPos="4800.00" arrivalSpeed="31.68" duration="158.00" routeLength="4986.31" waitingTime="0.00" waitingCount="0" stopTime="0.00" timeLoss="0.56" rerouteNo="0" devices="tripinfo_CAVToC.11 routing_CAVToC.11 ssm_CAVToC.11 toc_CAVToC.11 driverstateCAVToC.11" vType="vehLVOS298" speedFactor="0.88" vaporized=""/>
    <tripinfo id="CVToC.5" depart="24.90" departLane="entry_0" departPos="1.77" departSpeed="29.81" departDelay="10.30" arrival="190.00" arrivalLane="e0_0" arrivalPos="4800.00" arrivalSpeed="32.23" duration="165.10" routeLength="4998.23" waitingTime="0.00" waitingCount="0" stopTime="0.00" timeLoss="46.30" rerouteNo="0" devices="tripinfo_CVToC.5 routing_CVToC.5 ssm_CVToC.5 toc_CVToC.5 driverstateCVToC.5" vType="vehLVOS265" speedFactor="1.17" vaporized=""/>
    <tripinfo id="CVToC.15" depart="32.70" departLane="entry_1" departPos="2.83" departSpeed="31.08" departDelay="6.30" arrival="190.10" arrivalLane="e0_1" arrivalPos="4800.00" arrivalSpeed="33.60" duration="157.40" routeLength="4997.17" waitingTime="0.00" waitingCount="0" stopTime="0.00" timeLoss="18.69" rerouteNo="0" devices="tripinfo_CVToC.15 routing_CVToC.15 ssm_CVToC.15 toc_CVToC.15 driverstateCVToC.15" vType="vehLVOS895" speedFactor="1.00" vaporized=""/>
    <tripinfo id="CVToC.11" depart="27.90" departLane="entry_0" departPos="7.96" departSpeed="29.04" departDelay="7.00" arrival="191.00" arrivalLane="e0_0" arrivalPos="4800.00" arrivalSpeed="33.39" duration="163.10" routeLength="4992.04" waitingTime="0.00" waitingCount="0" stopTime="0.00" timeLoss="25.05" rerouteNo="0" devices="tripinfo_CVToC.11 routing_CVToC.11 ssm_CVToC.11 toc_CVToC.11 driverstateCVToC.11" vType="vehLVOS108" speedFactor="1.00" vaporized=""/>
    <tripinfo id="CVToC.18" depart="37.60" departLane="entry_1" departPos="4.00" departSpeed="30.99" departDelay="3.80" arrival="191.00" arrivalLane="e0_1" arrivalPos="4800.00" arrivalSpeed="34.14" duration="153.40" routeLength="4996.00" waitingTime="0.00" waitingCount="0" stopTime="0.00" timeLoss="18.80" rerouteNo="0" devices="tripinfo_CVToC.18 routing_CVToC.18 ssm_CVToC.18 toc_CVToC.18 driverstateCVToC.18" vType="vehLVOS391" speedFactor="1.03" vaporized=""/>
    <tripinfo id="CVToC.14" depart="30.50" departLane="entry_0" departPos="1.11" departSpeed="30.43" departDelay="5.50" arrival="192.40" arrivalLane="e0_0" arrivalPos="4800.00" arrivalSpeed="33.61" duration="161.90" routeLength="4998.89" waitingTime="0.00" waitingCount="0" stopTime="0.00" timeLoss="31.61" rerouteNo="0" devices="tripinfo_CVToC.14 routing_CVToC.14 ssm_CVToC.14 toc_CVToC.14 driverstateCVToC.14" vType="vehLVOS8" speedFactor="1.06" vaporized=""/>
    <tripinfo id="CAVToC.14" depart="40.30" departLane="entry_1" departPos="4.98" departSpeed="31.68" departDelay="7.10" arrival="193.70" arrivalLane="e0_1" arrivalPos="4800.00" arrivalSpeed="36.72" duration="153.40" routeLength="4995.02" waitingTime="0.00" waitingCount="0" stopTime="0.00" timeLoss="17.50" rerouteNo="0" devices="tripinfo_CAVToC.14 routing_CAVToC.14 ssm_CAVToC.14 toc_CAVToC.14 driverstateCAVToC.14" vType="vehLVOS120" speedFactor="1.02" vaporized=""/>
    <tripinfo id="CAVToC.13" depart="35.00" departLane="entry_1" departPos="2.54" departSpeed="30.69" departDelay="5.80" arrival="194.00" arrivalLane="e0_0" arrivalPos="4800.00" arrivalSpeed="33.37" duration="159.00" routeLength="4997.46" waitingTime="0.00" waitingCount="0" stopTime="0.00" timeLoss="9.22" rerouteNo="0" devices="tripinfo_CAVToC.13 routing_CAVToC.13 ssm_CAVToC.13 toc_CAVToC.13 driverstateCAVToC.13" vType="vehLVOS245" speedFactor="0.92" vaporized=""/>
    <tripinfo id="CVToC.16" depart="43.20" departLane="entry_1" departPos="4.23" departSpeed="33.14" departDelay="14.80" arrival="195.00" arrivalLane="e0_1" arrivalPos="4800.00" arrivalSpeed="38.31" duration="151.80" routeLength="4995.77" waitingTime="0.00" waitingCount="0" stopTime="0.00" timeLoss="31.78" rerouteNo="0" devices="tripinfo_CVToC.16 routing_CVToC.16 ssm_CVToC.16 toc_CVToC.16 driverstateCVToC.16" vType="vehLVOS203" speedFactor="1.15" vaporized=""/>
    <tripinfo id="CAVToC.16" depart="45.30" departLane="entry_1" departPos="3.05" departSpeed="33.27" departDelay="1.60" arrival="198.50" arrivalLane="e0_1" arrivalPos="4800.00" arrivalSpeed="33.27" duration="153.20" routeLength="4996.95" waitingTime="0.00" waitingCount="0" stopTime="0.00" timeLoss="2.97" rerouteNo="0" devices="tripinfo_CAVToC.16 routing_CAVToC.16 ssm_CAVToC.16 toc_CAVToC.16 driverstateCAVToC.16" vType="vehLVOS684" speedFactor="0.92" vaporized=""/>
    <tripinfo id="CAVToC.12" depart="32.90" departLane="entry_0" departPos="9.17" departSpeed="30.13" departDelay="6.40" arrival="199.30" arrivalLane="e0_0" arrivalPos="4800.00" arrivalSpeed="31.22" duration="166.40" routeLength="4990.83" waitingTime="0.00" waitingCount="0" stopTime="0.00" timeLoss="6.63" rerouteNo="0" devices="tripinfo_CAVToC.12 routing_CAVToC.12 ssm_CAVToC.12 toc_CAVToC.12 driverstateCAVToC.12" vType="vehLVOS421" speedFactor="0.87" vaporized=""/>
    <tripinfo id="CVToC.22" depart="47.90" departLane="entry_1" departPos="4.25" departSpeed="33.97" departDelay="5.50" arrival="200.30" arrivalLane="e0_1" arrivalPos="4800.00" arrivalSpeed="38.06" duration="152.40" routeLength="4995.75" waitingTime="0.00" waitingCount="0" stopTime="0.00" timeLoss="24.73" rerouteNo="0" devices="tripinfo_CVToC.22 routing_CVToC.22 ssm_CVToC.22 toc_CVToC.22 driverstateCVToC.22" vType="vehLVOS172" speedFactor="1.08" vaporized=""/>
    <tripinfo id="CVToC.8" depart="50.80" departLane="entry_1" departPos="6.78" departSpeed="35.10" departDelay="33.80" arrival="201.60" arrivalLane="e0_1" arrivalPos="4800.00" arrivalSpeed="36.33" duration="150.80" routeLength="4993.22" waitingTime="0.00" waitingCount="0" stopTime="0.00" timeLoss="41.65" rerouteNo="0" devices="tripinfo_CVToC.8 routing_CVToC.8 ssm_CVToC.8 toc_CVToC.8 driverstateCVToC.8" vType="vehLVOS15" speedFactor="1.27" vaporized=""/>
    <tripinfo id="CAVToC.15" depart="41.60" departLane="entry_0" departPos="2.14" departSpeed="28.21" departDelay="3.80" arrival="204.40" arrivalLane="e0_1" arrivalPos="4800.00" arrivalSpeed="37.84" duration="162.80" routeLength="4997.86" waitingTime="0.00" waitingCount="0" stopTime="0.00" timeLoss="31.14" rerouteNo="0" devices="tripinfo_CAVToC.15 routing_CAVToC.15 ssm_CAVToC.15 toc_CAVToC.15 driverstateCAVToC.15" vType="vehLVOS933" speedFactor="1.05" vaporized=""/>
    <tripinfo id="CVToC.20" depart="44.40" departLane="entry_0" departPos="4.91" departSpeed="29.33" departDelay="6.80" arrival="207.60" arrivalLane="e0_0" arrivalPos="4800.00" arrivalSpeed="35.74" duration="163.20" routeLength="4995.09" waitingTime="0.00" waitingCount="0" stopTime="0.00" timeLoss="23.80" rerouteNo="0" devices="tripinfo_CVToC.20 routing_CVToC.20 ssm_CVToC.20 toc_CVToC.20 driverstateCVToC.20" vType="vehLVOS875" speedFactor="0.99" vaporized=""/>
    <tripinfo id="CVToC.21" depart="47.10" departLane="entry_0" departPos="7.54" departSpeed="30.19" departDelay="8.00" arrival="209.20" arrivalLane="e0_1" arrivalPos="4800.00" arrivalSpeed="35.66" duration="162.10" routeLength="4992.46" waitingTime="0.00" waitingCount="0" stopTime="0.00" timeLoss="22.07" rerouteNo="0" devices="tripinfo_CVToC.21 routing_CVToC.21 ssm_CVToC.21 toc_CVToC.21 driverstateCVToC.21" vType="vehLVOS680" speedFactor="0.99" vaporized=""/>
    <tripinfo id="CVToC.19" depart="39.20" departLane="entry_0" departPos="17.13" departSpeed="26.98" departDelay="3.40" arrival="210.40" arrivalLane="e0_1" arrivalPos="4800.00" arrivalSpeed="33.96" duration="171.20" routeLength="4982.87" waitingTime="0.00" waitingCount="0" stopTime="0.00" timeLoss="24.68" rerouteNo="0" devices="tripinfo_CVToC.19 routing_CVToC.19 ssm_CVToC.19 toc_CVToC.19 driverstateCVToC.19" vType="vehLVOS507" speedFactor="0.94" vaporized=""/>
    <tripinfo id="CVToC.27" depart="59.80" departLane="entry_1" departPos="61.25" departSpeed="31.85" departDelay="5.70" arrival="212.60" arrivalLane="e0_1" arrivalPos="4800.00" arrivalSpeed="39.82" duration="152.80" routeLength="4938.75" waitingTime="0.00" waitingCount="0" stopTime="0.00" timeLoss="29.61" rerouteNo="0" devices="tripinfo_CVToC.27 routing_CVToC.27 ssm_CVToC.27 toc_CVToC.27 driverstateCVToC.27" vType="vehLVOS663" speedFactor="1.11" vaporized=""/>
    <tripinfo id="LV.9" depart="61.90" departLane="entry_1" departPos="0.53" departSpeed="38.35" departDelay="4.10" arrival="214.50" arrivalLane="e0_1" arrivalPos="4800.00" arrivalSpeed="38.23" duration="152.60" routeLength="4999.47" waitingTime="0.00" waitingCount="0" stopTime="0.00" timeLoss="22.22" rerouteNo="0" devices="tripinfo_LV.9 routing_LV.9 ssm_LV.9" vType="vehLVOS573" speedFactor="1.06" vaporized=""/>
    <tripinfo id="LV.4" depart="33.20" departLane="entry_0" departPos="1.22" departSpeed="28.22" departDelay="4.80" arrival="216.50" arrivalLane="e0_0" arrivalPos="4800.00" arrivalSpeed="28.20" duration="183.30" routeLength="4998.78" waitingTime="0.00" waitingCount="0" stopTime="0.00" timeLoss="6.07" rerouteNo="0" devices="tripinfo_LV.4 routing_LV.4 ssm_LV.4" vType="vehLVOS592" speedFactor="0.78" vaporized=""/>
    <tripinfo id="CAVToC.19" depart="65.10" departLane="entry_1" departPos="22.78" departSpeed="36.75" departDelay="8.40" arrival="217.10" arrivalLane="e0_1" arrivalPos="4800.00" arrivalSpeed="40.77" duration="152.00" routeLength="4977.22" waitingTime="0.00" waitingCount="0" stopTime="0.00" timeLoss="39.12" rerouteNo="0" devices="tripinfo_CAVToC.19 routing_CAVToC.19 ssm_CAVToC.19 toc_CAVToC.19 driverstateCAVToC.19" vType="vehLVOS699" speedFactor="1.22" vaporized=""/>
    <tripinfo id="CVToC.17" depart="36.40" departLane="entry_0" departPos="16.59" departSpeed="26.68" departDelay="5.30" arrival="218.40" arrivalLane="e0_0" arrivalPos="4800.00" arrivalSpeed="31.61" duration="182.00" routeLength="4983.41" waitingTime="0.00" waitingCount="0" stopTime="0.00" timeLoss="25.12" rerouteNo="0" devices="tripinfo_CVToC.17 routing_CVToC.17 ssm_CVToC.17 toc_CVToC.17 driverstateCVToC.17" vType="vehLVOS879" speedFactor="0.88" vaporized=""/>
    <tripinfo id="LV.5" depart="66.10" departLane="entry_1" departPos="5.67" departSpeed="38.10" departDelay="21.70" arrival="219.30" arrivalLane="e0_1" arrivalPos="4800.00" arrivalSpeed="38.06" duration="153.20" routeLength="4994.33" waitingTime="0.00" waitingCount="0" stopTime="0.00" timeLoss="22.01" rerouteNo="0" devices="tripinfo_LV.5 routing_LV.5 ssm_LV.5" vType="vehLVOS890" speedFactor="1.06" vaporized=""/>
    <tripinfo id="LV.7" depart="55.70" departLane="entry_1" departPos="15.67" departSpeed="32.28" departDelay="4.70" arrival="220.20" arrivalLane="e0_0" arrivalPos="4800.00" arrivalSpeed="31.52" duration="164.50" routeLength="4984.33" waitingTime="0.00" waitingCount="0" stopTime="0.00" timeLoss="10.07" rerouteNo="0" devices="tripinfo_LV.7 routing_LV.7 ssm_LV.7" vType="vehLVOS782" speedFactor="0.89" vaporized=""/>
    <tripinfo id="LV.8" depart="67.90" departLane="entry_1" departPos="3.86" departSpeed="40.22" departDelay="13.80" arrival="220.40" arrivalLane="e0_1" arrivalPos="4800.00" arrivalSpeed="39.65" duration="152.50" routeLength="4996.14" waitingTime="0.00" waitingCount="0" stopTime="0.00" timeLoss="28.20" rerouteNo="0" devices="tripinfo_LV.8 routing_LV.8 ssm_LV.8" vType="vehLVOS981" speedFactor="1.11" vaporized=""/>
    <tripinfo id="LV.10" depart="70.00" departLane="entry_1" departPos="0.17" departSpeed="41.94" departDelay="11.30" arrival="221.70" arrivalLane="e0_1" arrivalPos="4800.00" arrivalSpeed="41.86" duration="151.70" routeLength="4999.83" waitingTime="0.00" waitingCount="0" stopTime="0.00" timeLoss="32.44" rerouteNo="0" devices="tripinfo_LV.10 routing_LV.10 ssm_LV.10" vType="vehLVOS445" speedFactor="1.16" vaporized=""/>
    <tripinfo id="LV.11" depart="71.30" departLane="entry_1" departPos="3.05" departSpeed="40.49" departDelay="10.00" arrival="223.10" arrivalLane="e0_1" arrivalPos="4800.00" arrivalSpeed="40.43" duration="151.80" routeLength="4996.95" waitingTime="0.00" waitingCount="0" stopTime="0.00" timeLoss="28.33" rerouteNo="0" devices="tripinfo_LV.11 routing_LV.11 ssm_LV.11" vType="vehLVOS514" speedFactor="1.12" vaporized=""/>
    <tripinfo id="LV.12" depart="73.60" departLane="entry_1" departPos="87.15" departSpeed="36.20" departDelay="9.60" arrival="226.00" arrivalLane="e0_1" arrivalPos="4800.00" arrivalSpeed="36.17" duration="152.40" routeLength="4912.85" waitingTime="0.00" waitingCount="0" stopTime="0.00" timeLoss="16.68" rerouteNo="0" devices="tripinfo_LV.12 routing_LV.12 ssm_LV.12" vType="vehLVOS648" speedFactor="1.00" vaporized=""/>
    <tripinfo id="CAVToC.17" depart="52.50" departLane="entry_1" departPos="3.86" departSpeed="28.57" departDelay="1.20" arrival="227.80" arrivalLane="e0_0" arrivalPos="4800.00" arrivalSpeed="28.53" duration="175.30" routeLength="4996.14" waitingTime="0.00" waitingCount="0" stopTime="0.00" timeLoss="0.39" rerouteNo="0" devices="tripinfo_CAVToC.17 routing_CAVToC.17 ssm_CAVToC.17 toc_CAVToC.17 driverstateCAVToC.17" vType="vehLVOS274" speedFactor="0.79" vaporized=""/>
    <tripinfo id="CAVToC.21" depart="73.70" departLane="entry_1" departPos="4.02" departSpeed="36.56" departDelay="14.40" arrival="228.70" arrivalLane="e0_1" arrivalPos="4800.00" arrivalSpeed="39.53" duration="155.00" routeLength="4995.98" waitingTime="0.00" waitingCount="0" stopTime="0.00" timeLoss="28.72" rerouteNo="0" devices="tripinfo_CAVToC.21 routing_CAVToC.21 ssm_CAVToC.21 toc_CAVToC.21 driverstateCAVToC.21" vType="vehLVOS339" speedFactor="1.10" vaporized=""/>
    <tripinfo id="CVToC.23" depart="50.10" departLane="entry_0" departPos="10.16" departSpeed="30.83" departDelay="5.90" arrival="229.10" arrivalLane="e0_0" arrivalPos="4800.00" arrivalSpeed="30.35" duration="179.00" routeLength="4989.84" waitingTime="0.00" waitingCount="0" stopTime="0.00" timeLoss="55.24" rerouteNo="0" devices="tripinfo_CVToC.23 routing_CVToC.23 ssm_CVToC.23 toc_CVToC.23 driverstateCVToC.23" vType="vehLVOS975" speedFactor="1.12" vaporized=""/>
    <tripinfo id="CVToC.28" depart="76.00" departLane="entry_1" departPos="3.41" departSpeed="36.39" departDelay="13.70" arrival="230.80" arrivalLane="e0_1" arrivalPos="4800.00" arrivalSpeed="38.25" duration="154.80" routeLength="4996.59" waitingTime="0.00" waitingCount="0" stopTime="0.00" timeLoss="24.18" rerouteNo="0" devices="tripinfo_CVToC.28 routing_CVToC.28 ssm_CVToC.28 toc_CVToC.28 driverstateCVToC.28" vType="vehLVOS112" speedFactor="1.06" vaporized=""/>
    <tripinfo id="CVToC.25" depart="53.10" departLane="entry_0" departPos="30.23" departSpeed="30.21" departDelay="6.60" arrival="232.30" arrivalLane="e0_0" arrivalPos="4800.00" arrivalSpeed="33.47" duration="179.20" routeLength="4969.77" waitingTime="0.00" waitingCount="0" stopTime="0.00" timeLoss="31.42" rerouteNo="0" devices="tripinfo_CVToC.25 routing_CVToC.25 ssm_CVToC.25 toc_CVToC.25 driverstateCVToC.25" vType="vehLVOS574" speedFactor="0.93" vaporized=""/>
    <tripinfo id="LV.13" depart="78.40" departLane="entry_1" departPos="1.91" departSpeed="40.09" departDelay="14.30" arrival="232.30" arrivalLane="e0_1" arrivalPos="4800.00" arrivalSpeed="40.00" duration="153.90" routeLength="4998.09" waitingTime="0.00" waitingCount="0" stopTime="0.00" timeLoss="29.18" rerouteNo="0" devices="tripinfo_LV.13 routing_LV.13 ssm_LV.13" vType="vehLVOS563" speedFactor="1.11" vaporized=""/>
    <tripinfo id="CVToC.24" depart="55.60" departLane="entry_0" departPos="10.41" departSpeed="30.39" departDelay="10.10" arrival="233.80" arrivalLane="e0_0" arrivalPos="4800.00" arrivalSpeed="35.70" duration="178.20" routeLength="4989.59" waitingTime="0.00" waitingCount="0" stopTime="0.00" timeLoss="58.42" rerouteNo="0" devices="tripinfo_CVToC.24 routing_CVToC.24 ssm_CVToC.24 toc_CVToC.24 driverstateCVToC.24" vType="vehLVOS243" speedFactor="1.15" vaporized=""/>