<?xml version="1.0" encoding="UTF-8"?>

<!-- generated on 09/23/20 08:06:58 by Eclipse SUMO Version 1.6.0
<configuration xmlns:xsi="http://www.w3.org/2001/XMLSchema-instance" xsi:noNamespaceSchemaLocation="http://sumo.dlr.de/xsd/sumoConfiguration.xsd">

    <input>
        <net-file value="scenario/UC5_1.net.xml"/>
        <route-files value="scenario/routes_trafficMix_0_trafficDemand_1_driverBehaviour_OS_seed_0.xml"/>
        <additional-files value="scenario/additionalsOutput_trafficMix_0_trafficDemand_1_driverBehaviour_OS_seed_0.xml,scenario/vTypesCAVToC_OS.add.xml,scenario/vTypesCVToC_OS.add.xml,scenario/vTypesLV_OS.add.xml,scenario/shapes.add.xml,scenario/view.add.xml"/>
    </input>

    <output>
        <tripinfo-output value="C:\Users\laborknecht\Aris\workspace\ma-branch\tor-distribution/outputs/simulations/DQN__2020-09-22_13-29-46__20200923-071300/tripinfo_6.xml"/>
    </output>

    <time>
        <step-length value="0.1"/>
    </time>

    <processing>
        <step-method.ballistic value="true"/>
        <ignore-route-errors value="true"/>
        <lanechange.duration value="2.5"/>
    </processing>

    <report>
        <no-step-log value="true"/>
    </report>

    <toc_device>
        <device.toc.ogNewTimeHeadway value="100"/>
        <device.toc.ogNewSpaceHeadway value="5"/>
        <device.toc.ogMaxDecel value="1"/>
        <device.toc.ogChangeRate value="1"/>
    </toc_device>

    <traci_server>
        <remote-port value="50544"/>
    </traci_server>

    <random_number>
        <seed value="1030"/>
    </random_number>

    <gui_only>
        <tracker-interval value="0.1"/>
    </gui_only>

</configuration>
-->

<tripinfos xmlns:xsi="http://www.w3.org/2001/XMLSchema-instance" xsi:noNamespaceSchemaLocation="http://sumo.dlr.de/xsd/tripinfo_file.xsd">
    <tripinfo id="CAVToC.1" depart="3.30" departLane="entry_1" departPos="83.45" departSpeed="36.49" departDelay="0.00" arrival="131.90" arrivalLane="e0_1" arrivalPos="4800.00" arrivalSpeed="39.01" duration="128.60" routeLength="4916.55" waitingTime="0.00" waitingCount="0" stopTime="0.00" timeLoss="2.51" rerouteNo="0" devices="tripinfo_CAVToC.1 routing_CAVToC.1 ssm_CAVToC.1 toc_CAVToC.1 driverstateCAVToC.1" vType="vehLVOS524" speedFactor="1.08" vaporized=""/>
    <tripinfo id="LV.1" depart="6.70" departLane="entry_1" departPos="134.40" departSpeed="39.39" departDelay="0.00" arrival="133.80" arrivalLane="e0_1" arrivalPos="4800.00" arrivalSpeed="39.34" duration="127.10" routeLength="4865.60" waitingTime="0.00" waitingCount="0" stopTime="0.00" timeLoss="3.50" rerouteNo="0" devices="tripinfo_LV.1 routing_LV.1 ssm_LV.1" vType="vehLVOS289" speedFactor="1.09" vaporized=""/>
    <tripinfo id="LV.0" depart="2.10" departLane="entry_1" departPos="125.88" departSpeed="36.69" departDelay="0.00" arrival="135.20" arrivalLane="e0_0" arrivalPos="4800.00" arrivalSpeed="36.69" duration="133.10" routeLength="4874.12" waitingTime="0.00" waitingCount="0" stopTime="0.00" timeLoss="0.21" rerouteNo="0" devices="tripinfo_LV.0 routing_LV.0 ssm_LV.0" vType="vehLVOS158" speedFactor="1.02" vaporized=""/>
    <tripinfo id="CAVToC.2" depart="6.70" departLane="entry_1" departPos="42.54" departSpeed="37.15" departDelay="0.00" arrival="135.50" arrivalLane="e0_1" arrivalPos="4800.00" arrivalSpeed="41.29" duration="128.80" routeLength="4957.46" waitingTime="0.00" waitingCount="0" stopTime="0.00" timeLoss="16.38" rerouteNo="0" devices="tripinfo_CAVToC.2 routing_CAVToC.2 ssm_CAVToC.2 toc_CAVToC.2 driverstateCAVToC.2" vType="vehLVOS54" speedFactor="1.22" vaporized=""/>
    <tripinfo id="CVToC.1" depart="10.00" departLane="entry_1" departPos="2.87" departSpeed="36.49" departDelay="0.00" arrival="142.10" arrivalLane="e0_1" arrivalPos="4800.00" arrivalSpeed="39.03" duration="132.10" routeLength="4997.13" waitingTime="0.00" waitingCount="0" stopTime="0.00" timeLoss="3.98" rerouteNo="0" devices="tripinfo_CVToC.1 routing_CVToC.1 ssm_CVToC.1 toc_CVToC.1 driverstateCVToC.1" vType="vehLVOS216" speedFactor="1.08" vaporized=""/>
    <tripinfo id="CAVToC.3" depart="6.90" departLane="entry_0" departPos="199.90" departSpeed="36.96" departDelay="0.00" arrival="143.70" arrivalLane="e0_1" arrivalPos="4800.00" arrivalSpeed="42.06" duration="136.80" routeLength="4800.10" waitingTime="0.00" waitingCount="0" stopTime="0.00" timeLoss="24.26" rerouteNo="0" devices="tripinfo_CAVToC.3 routing_CAVToC.3 ssm_CAVToC.3 toc_CAVToC.3 driverstateCAVToC.3" vType="vehLVOS235" speedFactor="1.18" vaporized=""/>
    <tripinfo id="CVToC.0" depart="8.60" departLane="entry_1" departPos="34.16" departSpeed="36.34" departDelay="0.00" arrival="143.70" arrivalLane="e0_0" arrivalPos="4800.00" arrivalSpeed="37.10" duration="135.10" routeLength="4965.84" waitingTime="0.00" waitingCount="0" stopTime="0.00" timeLoss="1.39" rerouteNo="0" devices="tripinfo_CVToC.0 routing_CVToC.0 ssm_CVToC.0 toc_CVToC.0 driverstateCVToC.0" vType="vehLVOS918" speedFactor="1.03" vaporized=""/>
    <tripinfo id="CAVToC.5" depart="14.40" departLane="entry_1" departPos="1.18" departSpeed="34.40" departDelay="0.00" arrival="151.70" arrivalLane="e0_0" arrivalPos="4800.00" arrivalSpeed="37.32" duration="137.30" routeLength="4998.82" waitingTime="0.00" waitingCount="0" stopTime="0.00" timeLoss="3.47" rerouteNo="0" devices="tripinfo_CAVToC.5 routing_CAVToC.5 ssm_CAVToC.5 toc_CAVToC.5 driverstateCAVToC.5" vType="vehLVOS71" speedFactor="1.03" vaporized=""/>
    <tripinfo id="CVToC.5" depart="19.50" departLane="entry_0" departPos="2.64" departSpeed="29.30" departDelay="0.00" arrival="155.00" arrivalLane="e0_1" arrivalPos="4800.00" arrivalSpeed="38.20" duration="135.50" routeLength="4997.36" waitingTime="0.00" waitingCount="0" stopTime="0.00" timeLoss="4.62" rerouteNo="0" devices="tripinfo_CVToC.5 routing_CVToC.5 ssm_CVToC.5 toc_CVToC.5 driverstateCVToC.5" vType="vehLVOS515" speedFactor="1.06" vaporized=""/>
    <tripinfo id="CAVToC.0" depart="0.50" departLane="entry_1" departPos="199.90" departSpeed="30.92" departDelay="0.00" arrival="156.10" arrivalLane="e0_0" arrivalPos="4800.00" arrivalSpeed="30.88" duration="155.60" routeLength="4800.10" waitingTime="0.00" waitingCount="0" stopTime="0.00" timeLoss="0.33" rerouteNo="0" devices="tripinfo_CAVToC.0 routing_CAVToC.0 ssm_CAVToC.0 toc_CAVToC.0 driverstateCAVToC.0" vType="vehLVOS616" speedFactor="0.86" vaporized=""/>
    <tripinfo id="CAVToC.4" depart="7.40" departLane="entry_0" departPos="138.03" departSpeed="36.14" departDelay="0.00" arrival="156.90" arrivalLane="e0_0" arrivalPos="4800.00" arrivalSpeed="32.74" duration="149.50" routeLength="4861.97" waitingTime="0.00" waitingCount="0" stopTime="0.00" timeLoss="17.49" rerouteNo="0" devices="tripinfo_CAVToC.4 routing_CAVToC.4 ssm_CAVToC.4 toc_CAVToC.4 driverstateCAVToC.4" vType="vehLVOS268" speedFactor="1.02" vaporized=""/>
    <tripinfo id="CVToC.3" depart="12.20" departLane="entry_1" departPos="8.52" departSpeed="33.94" departDelay="0.00" arrival="159.30" arrivalLane="e0_0" arrivalPos="4800.00" arrivalSpeed="33.94" duration="147.10" routeLength="4991.48" waitingTime="0.00" waitingCount="0" stopTime="0.00" timeLoss="0.03" rerouteNo="0" devices="tripinfo_CVToC.3 routing_CVToC.3 ssm_CVToC.3 toc_CVToC.3 driverstateCVToC.3" vType="vehLVOS578" speedFactor="0.94" vaporized=""/>
    <tripinfo id="CAVToC.9" depart="26.70" departLane="entry_1" departPos="62.83" departSpeed="34.04" departDelay="0.10" arrival="163.10" arrivalLane="e0_1" arrivalPos="4800.00" arrivalSpeed="38.45" duration="136.40" routeLength="4937.17" waitingTime="0.00" waitingCount="0" stopTime="0.00" timeLoss="7.98" rerouteNo="0" devices="tripinfo_CAVToC.9 routing_CAVToC.9 ssm_CAVToC.9 toc_CAVToC.9 driverstateCAVToC.9" vType="vehLVOS606" speedFactor="1.06" vaporized=""/>
    <tripinfo id="LV.2" depart="27.50" departLane="entry_0" departPos="0.73" departSpeed="43.85" departDelay="4.40" arrival="164.90" arrivalLane="e0_1" arrivalPos="4800.00" arrivalSpeed="42.36" duration="137.40" routeLength="4999.27" waitingTime="0.00" waitingCount="0" stopTime="0.00" timeLoss="23.38" rerouteNo="0" devices="tripinfo_LV.2 routing_LV.2 ssm_LV.2" vType="vehLVOS332" speedFactor="1.21" vaporized=""/>
    <tripinfo id="CVToC.7" depart="24.30" departLane="entry_1" departPos="70.71" departSpeed="31.91" departDelay="0.00" arrival="166.60" arrivalLane="e0_0" arrivalPos="4800.00" arrivalSpeed="34.68" duration="142.30" routeLength="4929.29" waitingTime="0.00" waitingCount="0" stopTime="0.00" timeLoss="0.47" rerouteNo="0" devices="tripinfo_CVToC.7 routing_CVToC.7 ssm_CVToC.7 toc_CVToC.7 driverstateCVToC.7" vType="vehLVOS545" speedFactor="0.96" vaporized=""/>
    <tripinfo id="LV.4" depart="37.70" departLane="entry_1" departPos="0.52" departSpeed="44.86" departDelay="3.70" arrival="169.30" arrivalLane="e0_1" arrivalPos="4800.00" arrivalSpeed="44.84" duration="131.60" routeLength="4999.48" waitingTime="0.00" waitingCount="0" stopTime="0.00" timeLoss="20.08" rerouteNo="0" devices="tripinfo_LV.4 routing_LV.4 ssm_LV.4" vType="vehLVOS832" speedFactor="1.24" vaporized=""/>
    <tripinfo id="CVToC.8" depart="28.40" departLane="entry_1" departPos="42.99" departSpeed="34.74" departDelay="0.00" arrival="171.20" arrivalLane="e0_0" arrivalPos="4800.00" arrivalSpeed="35.64" duration="142.80" routeLength="4957.01" waitingTime="0.00" waitingCount="0" stopTime="0.00" timeLoss="3.66" rerouteNo="0" devices="tripinfo_CVToC.8 routing_CVToC.8 ssm_CVToC.8 toc_CVToC.8 driverstateCVToC.8" vType="vehLVOS345" speedFactor="0.99" vaporized=""/>
    <tripinfo id="CAVToC.10" depart="33.10" departLane="entry_1" departPos="130.88" departSpeed="35.48" departDelay="0.00" arrival="172.80" arrivalLane="e0_1" arrivalPos="4800.00" arrivalSpeed="37.15" duration="139.70" routeLength="4869.12" waitingTime="0.00" waitingCount="0" stopTime="0.00" timeLoss="8.73" rerouteNo="0" devices="tripinfo_CAVToC.10 routing_CAVToC.10 ssm_CAVToC.10 toc_CAVToC.10 driverstateCAVToC.10" vType="vehLVOS284" speedFactor="1.03" vaporized=""/>
    <tripinfo id="LV.3" depart="31.80" departLane="entry_0" departPos="29.32" departSpeed="36.81" departDelay="0.00" arrival="177.20" arrivalLane="e0_0" arrivalPos="4800.00" arrivalSpeed="36.77" duration="145.40" routeLength="4970.68" waitingTime="0.00" waitingCount="0" stopTime="0.00" timeLoss="10.29" rerouteNo="0" devices="tripinfo_LV.3 routing_LV.3 ssm_LV.3" vType="vehLVOS542" speedFactor="1.02" vaporized=""/>
    <tripinfo id="CAVToC.17" depart="41.60" departLane="entry_1" departPos="6.06" departSpeed="36.34" departDelay="0.70" arrival="181.00" arrivalLane="e0_1" arrivalPos="4800.00" arrivalSpeed="37.82" duration="139.40" routeLength="4993.94" waitingTime="0.00" waitingCount="0" stopTime="0.00" timeLoss="7.31" rerouteNo="0" devices="tripinfo_CAVToC.17 routing_CAVToC.17 ssm_CAVToC.17 toc_CAVToC.17 driverstateCAVToC.17" vType="vehLVOS293" speedFactor="1.05" vaporized=""/>
    <tripinfo id="CAVToC.14" depart="39.50" departLane="entry_1" departPos="6.48" departSpeed="36.35" departDelay="0.80" arrival="181.20" arrivalLane="e0_0" arrivalPos="4800.00" arrivalSpeed="36.91" duration="141.70" routeLength="4993.52" waitingTime="0.00" waitingCount="0" stopTime="0.00" timeLoss="6.61" rerouteNo="0" devices="tripinfo_CAVToC.14 routing_CAVToC.14 ssm_CAVToC.14 toc_CAVToC.14 driverstateCAVToC.14" vType="vehLVOS588" speedFactor="1.02" vaporized=""/>
    <tripinfo id="LV.5" depart="46.40" departLane="entry_1" departPos="6.31" departSpeed="41.00" departDelay="1.90" arrival="182.40" arrivalLane="e0_1" arrivalPos="4800.00" arrivalSpeed="39.53" duration="136.00" routeLength="4993.69" waitingTime="0.00" waitingCount="0" stopTime="0.00" timeLoss="14.14" rerouteNo="0" devices="tripinfo_LV.5 routing_LV.5 ssm_LV.5" vType="vehLVOS601" speedFactor="1.14" vaporized=""/>
    <tripinfo id="CAVToC.12" depart="37.40" departLane="entry_0" departPos="75.27" departSpeed="34.95" departDelay="0.00" arrival="185.30" arrivalLane="e0_0" arrivalPos="4800.00" arrivalSpeed="37.49" duration="147.90" routeLength="4924.73" waitingTime="0.00" waitingCount="0" stopTime="0.00" timeLoss="16.57" rerouteNo="0" devices="tripinfo_CAVToC.12 routing_CAVToC.12 ssm_CAVToC.12 toc_CAVToC.12 driverstateCAVToC.12" vType="vehLVOS432" speedFactor="1.04" vaporized=""/>
    <tripinfo id="CVToC.6" depart="24.40" departLane="entry_0" departPos="142.53" departSpeed="28.30" departDelay="0.30" arrival="192.20" arrivalLane="e0_1" arrivalPos="4800.00" arrivalSpeed="37.28" duration="167.80" routeLength="4857.47" waitingTime="0.00" waitingCount="0" stopTime="0.00" timeLoss="37.43" rerouteNo="0" devices="tripinfo_CVToC.6 routing_CVToC.6 ssm_CVToC.6 toc_CVToC.6 driverstateCVToC.6" vType="vehLVOS915" speedFactor="1.03" vaporized=""/>
    <tripinfo id="CAVToC.11" depart="36.70" departLane="entry_0" departPos="132.13" departSpeed="34.54" departDelay="0.10" arrival="193.00" arrivalLane="e0_0" arrivalPos="4800.00" arrivalSpeed="34.48" duration="156.30" routeLength="4867.87" waitingTime="0.00" waitingCount="0" stopTime="0.00" timeLoss="15.35" rerouteNo="0" devices="tripinfo_CAVToC.11 routing_CAVToC.11 ssm_CAVToC.11 toc_CAVToC.11 driverstateCAVToC.11" vType="vehLVOS980" speedFactor="0.96" vaporized=""/>
    <tripinfo id="CAVToC.22" depart="50.50" departLane="entry_1" departPos="9.36" departSpeed="34.70" departDelay="1.40" arrival="198.70" arrivalLane="e0_1" arrivalPos="4800.00" arrivalSpeed="37.49" duration="148.20" routeLength="4990.64" waitingTime="0.00" waitingCount="0" stopTime="0.00" timeLoss="15.13" rerouteNo="0" devices="tripinfo_CAVToC.22 routing_CAVToC.22 ssm_CAVToC.22 toc_CAVToC.22 driverstateCAVToC.22" vType="vehLVOS201" speedFactor="1.04" vaporized=""/>
    <tripinfo id="CAVToC.20" depart="48.70" departLane="entry_1" departPos="28.99" departSpeed="34.26" departDelay="0.50" arrival="199.90" arrivalLane="e0_0" arrivalPos="4800.00" arrivalSpeed="34.16" duration="151.20" routeLength="4971.01" waitingTime="0.00" waitingCount="0" stopTime="0.00" timeLoss="6.04" rerouteNo="0" devices="tripinfo_CAVToC.20 routing_CAVToC.20 ssm_CAVToC.20 toc_CAVToC.20 driverstateCAVToC.20" vType="vehLVOS460" speedFactor="0.95" vaporized=""/>
    <tripinfo id="CAVToC.23" depart="55.20" departLane="entry_1" departPos="12.44" departSpeed="32.10" departDelay="5.90" arrival="202.00" arrivalLane="e0_1" arrivalPos="4800.00" arrivalSpeed="36.88" duration="146.80" routeLength="4987.56" waitingTime="0.00" waitingCount="0" stopTime="0.00" timeLoss="11.56" rerouteNo="0" devices="tripinfo_CAVToC.23 routing_CAVToC.23 ssm_CAVToC.23 toc_CAVToC.23 driverstateCAVToC.23" vType="vehLVOS568" speedFactor="1.02" vaporized=""/>
    <tripinfo id="CAVToC.13" depart="38.60" departLane="entry_0" departPos="45.45" departSpeed="34.41" departDelay="0.00" arrival="207.30" arrivalLane="e0_1" arrivalPos="4800.00" arrivalSpeed="34.37" duration="168.70" routeLength="4954.55" waitingTime="0.00" waitingCount="0" stopTime="0.00" timeLoss="24.73" rerouteNo="0" devices="tripinfo_CAVToC.13 routing_CAVToC.13 ssm_CAVToC.13 toc_CAVToC.13 driverstateCAVToC.13" vType="vehLVOS716" speedFactor="0.95" vaporized=""/>
    <tripinfo id="CVToC.2" depart="11.30" departLane="entry_0" departPos="199.90" departSpeed="23.98" departDelay="0.00" arrival="211.70" arrivalLane="e0_0" arrivalPos="4800.00" arrivalSpeed="23.95" duration="200.40" routeLength="4800.10" waitingTime="0.00" waitingCount="0" stopTime="0.00" timeLoss="0.23" rerouteNo="0" devices="tripinfo_CVToC.2 routing_CVToC.2 ssm_CVToC.2 toc_CVToC.2 driverstateCVToC.2" vType="vehLVOS596" speedFactor="0.66" vaporized=""/>
    <tripinfo id="CVToC.4" depart="15.30" departLane="entry_0" departPos="199.90" departSpeed="26.06" departDelay="0.20" arrival="213.20" arrivalLane="e0_0" arrivalPos="4800.00" arrivalSpeed="26.25" duration="197.90" routeLength="4800.10" waitingTime="0.00" waitingCount="0" stopTime="0.00" timeLoss="78.33" rerouteNo="0" devices="tripinfo_CVToC.4 routing_CVToC.4 ssm_CVToC.4 toc_CVToC.4 driverstateCVToC.4" vType="vehLVOS926" speedFactor="1.11" vaporized=""/>
    <tripinfo id="CAVToC.25" depart="52.60" departLane="entry_1" departPos="12.87" departSpeed="31.43" departDelay="0.50" arrival="213.40" arrivalLane="e0_1" arrivalPos="4800.00" arrivalSpeed="31.38" duration="160.80" routeLength="4987.13" waitingTime="0.00" waitingCount="0" stopTime="0.00" timeLoss="2.08" rerouteNo="0" devices="tripinfo_CAVToC.25 routing_CAVToC.25 ssm_CAVToC.25 toc_CAVToC.25 driverstateCAVToC.25" vType="vehLVOS267" speedFactor="0.87" vaporized=""/>
    <tripinfo id="CAVToC.6" depart="16.00" departLane="entry_0" departPos="133.08" departSpeed="27.32" departDelay="0.10" arrival="215.50" arrivalLane="e0_0" arrivalPos="4800.00" arrivalSpeed="26.71" duration="199.50" routeLength="4866.92" waitingTime="0.00" waitingCount="0" stopTime="0.00" timeLoss="71.27" rerouteNo="0" devices="tripinfo_CAVToC.6 routing_CAVToC.6 ssm_CAVToC.6 toc_CAVToC.6 driverstateCAVToC.6" vType="vehLVOS222" speedFactor="1.05" vaporized=""/>
    <tripinfo id="CVToC.11" depart="57.40" departLane="entry_1" departPos="3.87" departSpeed="32.43" departDelay="1.30" arrival="215.80" arrivalLane="e0_1" arrivalPos="4800.00" arrivalSpeed="35.24" duration="158.40" routeLength="4996.13" waitingTime="0.00" waitingCount="0" stopTime="0.00" timeLoss="16.62" rerouteNo="0" devices="tripinfo_CVToC.11 routing_CVToC.11 ssm_CVToC.11 toc_CVToC.11 driverstateCVToC.11" vType="vehLVOS568" speedFactor="0.98" vaporized=""/>
    <tripinfo id="CAVToC.7" depart="16.70" departLane="entry_0" departPos="75.57" departSpeed="28.03" departDelay="0.00" arrival="217.30" arrivalLane="e0_0" arrivalPos="4800.00" arrivalSpeed="28.63" duration="200.60" routeLength="4924.43" waitingTime="0.00" waitingCount="0" stopTime="0.00" timeLoss="54.81" rerouteNo="0" devices="tripinfo_CAVToC.7 routing_CAVToC.7 ssm_CAVToC.7 toc_CAVToC.7 driverstateCAVToC.7" vType="vehLVOS499" speedFactor="0.94" vaporized=""/>
    <tripinfo id="CVToC.14" depart="60.20" departLane="entry_1" departPos="18.08" departSpeed="32.64" departDelay="0.90" arrival="218.00" arrivalLane="e0_1" arrivalPos="4800.00" arrivalSpeed="34.88" duration="157.80" routeLength="4981.92" waitingTime="0.00" waitingCount="0" stopTime="0.00" timeLoss="15.46" rerouteNo="0" devices="tripinfo_CVToC.14 routing_CVToC.14 ssm_CVToC.14 toc_CVToC.14 driverstateCVToC.14" vType="vehLVOS62" speedFactor="0.97" vaporized=""/>
    <tripinfo id="CAVToC.8" depart="17.80" departLane="entry_0" departPos="38.49" departSpeed="28.38" departDelay="0.00" arrival="219.70" arrivalLane="e0_0" arrivalPos="4800.00" arrivalSpeed="31.42" duration="201.90" routeLength="4961.51" waitingTime="0.00" waitingCount="0" stopTime="0.00" timeLoss="45.30" rerouteNo="0" devices="tripinfo_CAVToC.8 routing_CAVToC.8 ssm_CAVToC.8 toc_CAVToC.8 driverstateCAVToC.8" vType="vehLVOS589" speedFactor="0.88" vaporized=""/>
    <tripinfo id="CVToC.9" depart="29.70" departLane="entry_0" departPos="18.59" departSpeed="34.92" departDelay="0.00" arrival="221.50" arrivalLane="e0_0" arrivalPos="4800.00" arrivalSpeed="29.79" duration="191.80" routeLength="4981.41" waitingTime="0.00" waitingCount="0" stopTime="0.00" timeLoss="49.15" rerouteNo="0" devices="tripinfo_CVToC.9 routing_CVToC.9 ssm_CVToC.9 toc_CVToC.9 driverstateCVToC.9" vType="vehLVOS18" speedFactor="0.97" vaporized=""/>
    <tripinfo id="LV.8" depart="55.40" departLane="entry_0" departPos="53.96" departSpeed="30.38" departDelay="0.10" arrival="221.80" arrivalLane="e0_1" arrivalPos="4800.00" arrivalSpeed="30.32" duration="166.40" routeLength="4946.04" waitingTime="0.00" waitingCount="0" stopTime="0.00" timeLoss="3.54" rerouteNo="0" devices="tripinfo_LV.8 routing_LV.8 ssm_LV.8" vType="vehLVOS194" speedFactor="0.84" vaporized=""/>
    <tripinfo id="CAVToC.18" depart="43.80" departLane="entry_1" departPos="7.10" departSpeed="36.35" departDelay="1.80" arrival="223.00" arrivalLane="e0_0" arrivalPos="4800.00" arrivalSpeed="28.83" duration="179.20" routeLength="4992.90" waitingTime="0.00" waitingCount="0" stopTime="0.00" timeLoss="47.73" rerouteNo="0" devices="tripinfo_CAVToC.18 routing_CAVToC.18 ssm_CAVToC.18 toc_CAVToC.18 driverstateCAVToC.18" vType="vehLVOS375" speedFactor="1.05" vaporized=""/>
    <tripinfo id="CAVToC.26" depart="61.80" departLane="entry_1" departPos="1.14" departSpeed="31.97" departDelay="2.90" arrival="225.70" arrivalLane="e0_1" arrivalPos="4800.00" arrivalSpeed="31.92" duration="163.90" routeLength="4998.86" waitingTime="0.00" waitingCount="0" stopTime="0.00" timeLoss="7.49" rerouteNo="0" devices="tripinfo_CAVToC.26 routing_CAVToC.26 ssm_CAVToC.26 toc_CAVToC.26 driverstateCAVToC.26" vType="vehLVOS533" speedFactor="0.89" vaporized=""/>
    <tripinfo id="CAVToC.15" depart="39.60" departLane="entry_0" departPos="20.18" departSpeed="27.51" departDelay="0.20" arrival="227.60" arrivalLane="e0_0" arrivalPos="4800.00" arrivalSpeed="27.51" duration="188.00" routeLength="4979.82" waitingTime="0.00" waitingCount="0" stopTime="0.00" timeLoss="6.95" rerouteNo="0" devices="tripinfo_CAVToC.15 routing_CAVToC.15 ssm_CAVToC.15 toc_CAVToC.15 driverstateCAVToC.15" vType="vehLVOS610" speedFactor="0.76" vaporized=""/>
    <tripinfo id="CVToC.16" depart="64.20" departLane="entry_1" departPos="2.46" departSpeed="32.41" departDelay="3.60" arrival="227.80" arrivalLane="e0_1" arrivalPos="4800.00" arrivalSpeed="35.24" duration="163.60" routeLength="4997.54" waitingTime="0.00" waitingCount="0" stopTime="0.00" timeLoss="21.88" rerouteNo="0" devices="tripinfo_CVToC.16 routing_CVToC.16 ssm_CVToC.16 toc_CVToC.16 driverstateCVToC.16" vType="vehLVOS472" speedFactor="0.98" vaporized=""/>
    <tripinfo id="CVToC.18" depart="67.60" departLane="entry_1" departPos="17.50" departSpeed="33.25" departDelay="5.00" arrival="229.20" arrivalLane="e0_1" arrivalPos="4800.00" arrivalSpeed="36.17" duration="161.60" routeLength="4982.50" waitingTime="0.00" waitingCount="0" stopTime="0.00" timeLoss="51.61" rerouteNo="0" devices="tripinfo_CVToC.18 routing_CVToC.18 ssm_CVToC.18 toc_CVToC.18 driverstateCVToC.18" vType="vehLVOS73" speedFactor="1.26" vaporized=""/>
    <tripinfo id="CAVToC.16" depart="42.10" departLane="entry_0" departPos="2.61" departSpeed="28.77" departDelay="1.90" arrival="229.50" arrivalLane="e0_0" arrivalPos="4800.00" arrivalSpeed="31.64" duration="187.40" routeLength="4997.39" waitingTime="0.00" waitingCount="0" stopTime="0.00" timeLoss="58.39" rerouteNo="0" devices="tripinfo_CAVToC.16 routing_CAVToC.16 ssm_CAVToC.16 toc_CAVToC.16 driverstateCAVToC.16" vType="vehLVOS678" speedFactor="1.07" vaporized=""/>
    <tripinfo id="LV.7" depart="71.20" departLane="entry_1" departPos="1.00" departSpeed="41.71" departDelay="16.70" arrival="230.40" arrivalLane="e0_1" arrivalPos="4800.00" arrivalSpeed="36.33" duration="159.20" routeLength="4999.00" waitingTime="0.00" waitingCount="0" stopTime="0.00" timeLoss="39.29" rerouteNo="0" devices="tripinfo_LV.7 routing_LV.7 ssm_LV.7" vType="vehLVOS237" speedFactor="1.16" vaporized=""/>
    <tripinfo id="CAVToC.19" depart="45.50" departLane="entry_0" departPos="13.55" departSpeed="29.71" departDelay="1.10" arrival="231.00" arrivalLane="e0_0" arrivalPos="4800.00" arrivalSpeed="32.50" duration="185.50" routeLength="4986.45" waitingTime="0.00" waitingCount="0" stopTime="0.00" timeLoss="57.02" rerouteNo="0" devices="tripinfo_CAVToC.19 routing_CAVToC.19 ssm_CAVToC.19 toc_CAVToC.19 driverstateCAVToC.19" vType="vehLVOS642" speedFactor="1.07" vaporized=""/>
    <tripinfo id="LV.11" depart="73.90" departLane="entry_1" departPos="19.45" departSpeed="36.80" departDelay="4.50" arrival="232.80" arrivalLane="e0_1" arrivalPos="4800.00" arrivalSpeed="36.77" duration="158.90" routeLength="4980.55" waitingTime="0.00" waitingCount="0" stopTime="0.00" timeLoss="23.49" rerouteNo="0" devices="tripinfo_LV.11 routing_LV.11 ssm_LV.11" vType="vehLVOS321" speedFactor="1.02" vaporized=""/>
    <tripinfo id="LV.12" depart="76.70" departLane="entry_1" departPos="76.12" departSpeed="34.58" departDelay="6.50" arrival="234.40" arrivalLane="e0_1" arrivalPos="4800.00" arrivalSpeed="34.58" duration="157.70" routeLength="4923.88" waitingTime="0.00" waitingCount="0" stopTime="0.00" timeLoss="15.28" rerouteNo="0" devices="tripinfo_LV.12 routing_LV.12 ssm_LV.12" vType="vehLVOS25" speedFactor="0.96" vaporized=""/>
    <tripinfo id="CVToC.10" depart="48.10" departLane="entry_0" departPos="23.70" departSpeed="29.75" departDelay="0.00" arrival="234.70" arrivalLane="e0_0" arrivalPos="4800.00" arrivalSpeed="31.22" duration="186.60" routeLength="4976.30" waitingTime="0.00" waitingCount="0" stopTime="0.00" timeLoss="27.49" rerouteNo="0" devices="tripinfo_CVToC.10 routing_CVToC.10 ssm_CVToC.10 toc_CVToC.10 driverstateCVToC.10" vType="vehLVOS532" speedFactor="0.87" vaporized=""/>
    <tripinfo id="CAVToC.21" depart="49.70" departLane="entry_0" departPos="1.71" departSpeed="29.84" departDelay="0.80" arrival="236.50" arrivalLane="e0_0" arrivalPos="4800.00" arrivalSpeed="30.80" duration="186.80" routeLength="4998.29" waitingTime="0.00" waitingCount="0" stopTime="0.00" timeLoss="24.99" rerouteNo="0" devices="tripinfo_CAVToC.21 routing_CAVToC.21 ssm_CAVToC.21 toc_CAVToC.21 driverstateCAVToC.21" vType="vehLVOS150" speedFactor="0.86" vaporized=""/>
    <tripinfo id="CAVToC.29" depart="76.70" departLane="entry_1" departPos="0.02" departSpeed="34.71" departDelay="2.10" arrival="236.70" arrivalLane="e0_1" arrivalPos="4800.00" arrivalSpeed="34.75" duration="160.00" routeLength="4999.98" waitingTime="0.00" waitingCount="0" stopTime="0.00" timeLoss="16.23" rerouteNo="0" devices="tripinfo_CAVToC.29 routing_CAVToC.29 ssm_CAVToC.29 toc_CAVToC.29 driverstateCAVToC.29" vType="vehLVOS48" speedFactor="0.96" vaporized=""/>
    <tripinfo id="CAVToC.24" depart="52.40" departLane="entry_0" departPos="1.62" departSpeed="30.32" departDelay="0.80" arrival="237.70" arrivalLane="e0_0" arrivalPos="4800.00" arrivalSpeed="31.97" duration="185.30" routeLength="4998.38" waitingTime="0.00" waitingCount="0" stopTime="0.00" timeLoss="44.41" rerouteNo="0" devices="tripinfo_CAVToC.24 routing_CAVToC.24 ssm_CAVToC.24 toc_CAVToC.24 driverstateCAVToC.24" vType="vehLVOS321" speedFactor="0.98" vaporized=""/>
    <tripinfo id="CVToC.12" depart="56.30" departLane="entry_0" departPos="8.93" departSpeed="30.57" departDelay="0.00" arrival="239.50" arrivalLane="e0_0" arrivalPos="4800.00" arrivalSpeed="33.03" duration="183.20" routeLength="4991.07" waitingTime="0.00" waitingCount="0" stopTime="0.00" timeLoss="38.76" rerouteNo="0" devices="tripinfo_CVToC.12 routing_CVToC.12 ssm_CVToC.12 toc_CVToC.12 driverstateCVToC.12" vType="vehLVOS18" speedFactor="0.96" vaporized=""/>
    <tripinfo id="CAVToC.33" depart="78.80" departLane="entry_1" departPos="2.59" departSpeed="34.39" departDelay="1.00" arrival="240.00" arrivalLane="e0_1" arrivalPos="4800.00" arrivalSpeed="34.37" duration="161.20" routeLength="4997.41" waitingTime="0.00" waitingCount="0" stopTime="0.00" timeLoss="15.80" rerouteNo="0" devices="tripinfo_CAVToC.33 routing_CAVToC.33 ssm_CAVToC.33 toc_CAVToC.33 driverstateCAVToC.33" vType="vehLVOS665" speedFactor="0.95" vaporized=""/>
    <tripinfo id="CVToC.22" depart="82.60" departLane="entry_1" departPos="61.77" departSpeed="32.34" departDelay="4.00" arrival="241.50" arrivalLane="e0_1" arrivalPos="4800.00" arrivalSpeed="32.30" duration="158.90" routeLength="4938.23" waitingTime="0.00" waitingCount="0" stopTime="0.00" timeLoss="6.15" rerouteNo="0" devices="tripinfo_CVToC.22 routing_CVToC.22 ssm_CVToC.22 toc_CVToC.22 driverstateCVToC.22" vType="vehLVOS113" speedFactor="0.90" vaporized=""/>
    <tripinfo id="CVToC.21" depart="83.50" departLane="entry_1" departPos="16.89" departSpeed="32.62" departDelay="7.80" arrival="242.50" arrivalLane="e0_1" arrivalPos="4800.00" arrivalSpeed="34.11" duration="159.00" routeLength="4983.11" waitingTime="0.00" waitingCount="0" stopTime="0.00" timeLoss="12.91" rerouteNo="0" devices="tripinfo_CVToC.21 routing_CVToC.21 ssm_CVToC.21 toc_CVToC.21 driverstateCVToC.21" vType="vehLVOS860" speedFactor="0.94" vaporized=""/>
    <tripinfo id="CVToC.13" depart="58.90" departLane="entry_0" departPos="7.94" departSpeed="30.49" departDelay="0.00" arrival="242.70" arrivalLane="e0_0" arrivalPos="4800.00" arrivalSpeed="34.59" duration="183.80" routeLength="4992.06" waitingTime="0.00" waitingCount="0" stopTime="0.00" timeLoss="50.42" rerouteNo="0" devices="tripinfo_CVToC.13 routing_CVToC.13 ssm_CVToC.13 toc_CVToC.13 driverstateCVToC.13" vType="vehLVOS243" speedFactor="1.04" vaporized=""/>
    <tripinfo id="CVToC.15" depart="61.20" departLane="entry_0" departPos="1.62" departSpeed="30.18" departDelay="1.50" arrival="244.50" arrivalLane="e0_0" arrivalPos="4800.00" arrivalSpeed="35.24" duration="183.30" routeLength="4998.38" waitingTime="0.00" waitingCount="0" stopTime="0.00" timeLoss="45.22" rerouteNo="0" devices="tripinfo_CVToC.15 routing_CVToC.15 ssm_CVToC.15 toc_CVToC.15 driverstateCVToC.15" vType="vehLVOS424" speedFactor="1.00" vaporized=""/>
    <tripinfo id="CAVToC.27" depart="65.10" departLane="entry_0" departPos="42.90" departSpeed="29.47" departDelay="0.50" arrival="246.00" arrivalLane="e0_0" arrivalPos="4800.00" arrivalSpeed="33.76" duration="180.90" routeLength="4957.10" waitingTime="0.00" waitingCount="0" stopTime="0.00" timeLoss="41.67" rerouteNo="0" devices="tripinfo_CAVToC.27 routing_CAVToC.27 ssm_CAVToC.27 toc_CAVToC.27 driverstateCAVToC.27" vType="vehLVOS819" speedFactor="0.99" vaporized=""/>
    <tripinfo id="CAVToC.34" depart="86.10" departLane="entry_1" departPos="27.82" departSpeed="32.77" departDelay="6.30" arrival="246.50" arrivalLane="e0_1" arrivalPos="4800.00" arrivalSpeed="33.82" duration="160.40" routeLength="4972.18" waitingTime="0.00" waitingCount="0" stopTime="0.00" timeLoss="14.14" rerouteNo="0" devices="tripinfo_CAVToC.34 routing_CAVToC.34 ssm_CAVToC.34 toc_CAVToC.34 driverstateCAVToC.34" vType="vehLVOS251" speedFactor="0.94" vaporized=""/>