<?xml version="1.0" encoding="UTF-8"?>

<!-- generated on 09/23/20 07:13:05 by Eclipse SUMO Version 1.6.0
<configuration xmlns:xsi="http://www.w3.org/2001/XMLSchema-instance" xsi:noNamespaceSchemaLocation="http://sumo.dlr.de/xsd/sumoConfiguration.xsd">

    <input>
        <net-file value="scenario/UC5_1.net.xml"/>
        <route-files value="scenario/routes_trafficMix_0_trafficDemand_1_driverBehaviour_OS_seed_0.xml"/>
        <additional-files value="scenario/additionalsOutput_trafficMix_0_trafficDemand_1_driverBehaviour_OS_seed_0.xml,scenario/vTypesCAVToC_OS.add.xml,scenario/vTypesCVToC_OS.add.xml,scenario/vTypesLV_OS.add.xml,scenario/shapes.add.xml,scenario/view.add.xml"/>
    </input>

    <output>
        <tripinfo-output value="C:\Users\laborknecht\Aris\workspace\ma-branch\tor-distribution/outputs/simulations/DQN__2020-09-22_13-29-46__20200923-071300/tripinfo_1.xml"/>
    </output>

    <time>
        <step-length value="0.1"/>
    </time>

    <processing>
        <step-method.ballistic value="true"/>
        <ignore-route-errors value="true"/>
        <lanechange.duration value="2.5"/>
    </processing>

    <report>
        <no-step-log value="true"/>
    </report>

    <toc_device>
        <device.toc.ogNewTimeHeadway value="100"/>
        <device.toc.ogNewSpaceHeadway value="5"/>
        <device.toc.ogMaxDecel value="1"/>
        <device.toc.ogChangeRate value="1"/>
    </toc_device>

    <traci_server>
        <remote-port value="50437"/>
    </traci_server>

    <random_number>
        <seed value="1025"/>
    </random_number>

    <gui_only>
        <tracker-interval value="0.1"/>
    </gui_only>

</configuration>
-->

<tripinfos xmlns:xsi="http://www.w3.org/2001/XMLSchema-instance" xsi:noNamespaceSchemaLocation="http://sumo.dlr.de/xsd/tripinfo_file.xsd">
    <tripinfo id="CVToC.2" depart="7.10" departLane="entry_1" departPos="199.90" departSpeed="37.77" departDelay="0.00" arrival="133.10" arrivalLane="e0_1" arrivalPos="4800.00" arrivalSpeed="40.54" duration="126.00" routeLength="4800.10" waitingTime="0.00" waitingCount="0" stopTime="0.00" timeLoss="7.66" rerouteNo="0" devices="tripinfo_CVToC.2 routing_CVToC.2 ssm_CVToC.2 toc_CVToC.2 driverstateCVToC.2" vType="vehLVOS696" speedFactor="1.12" vaporized=""/>
    <tripinfo id="LV.0" depart="4.60" departLane="entry_1" departPos="199.90" departSpeed="37.23" departDelay="0.00" arrival="133.80" arrivalLane="e0_0" arrivalPos="4800.00" arrivalSpeed="37.17" duration="129.20" routeLength="4800.10" waitingTime="0.00" waitingCount="0" stopTime="0.00" timeLoss="0.25" rerouteNo="0" devices="tripinfo_LV.0 routing_LV.0 ssm_LV.0" vType="vehLVOS656" speedFactor="1.03" vaporized=""/>
    <tripinfo id="LV.1" depart="8.00" departLane="entry_1" departPos="145.28" departSpeed="39.19" departDelay="0.00" arrival="138.60" arrivalLane="e0_1" arrivalPos="4800.00" arrivalSpeed="39.01" duration="130.60" routeLength="4854.72" waitingTime="0.00" waitingCount="0" stopTime="0.00" timeLoss="6.64" rerouteNo="0" devices="tripinfo_LV.1 routing_LV.1 ssm_LV.1" vType="vehLVOS687" speedFactor="1.09" vaporized=""/>
    <tripinfo id="CVToC.0" depart="2.30" departLane="entry_0" departPos="199.90" departSpeed="35.42" departDelay="0.00" arrival="139.10" arrivalLane="e0_0" arrivalPos="4800.00" arrivalSpeed="35.23" duration="136.80" routeLength="4800.10" waitingTime="0.00" waitingCount="0" stopTime="0.00" timeLoss="1.25" rerouteNo="0" devices="tripinfo_CVToC.0 routing_CVToC.0 ssm_CVToC.0 toc_CVToC.0 driverstateCVToC.0" vType="vehLVOS473" speedFactor="0.98" vaporized=""/>
    <tripinfo id="CVToC.3" depart="9.00" departLane="entry_1" departPos="97.41" departSpeed="36.83" departDelay="0.00" arrival="139.80" arrivalLane="e0_1" arrivalPos="4800.00" arrivalSpeed="41.04" duration="130.80" routeLength="4902.59" waitingTime="0.00" waitingCount="0" stopTime="0.00" timeLoss="13.25" rerouteNo="0" devices="tripinfo_CVToC.3 routing_CVToC.3 ssm_CVToC.3 toc_CVToC.3 driverstateCVToC.3" vType="vehLVOS944" speedFactor="1.16" vaporized=""/>
    <tripinfo id="CVToC.4" depart="13.40" departLane="entry_0" departPos="196.60" departSpeed="29.22" departDelay="0.20" arrival="147.70" arrivalLane="e0_1" arrivalPos="4800.00" arrivalSpeed="36.23" duration="134.30" routeLength="4803.40" waitingTime="0.00" waitingCount="0" stopTime="0.00" timeLoss="1.71" rerouteNo="0" devices="tripinfo_CVToC.4 routing_CVToC.4 ssm_CVToC.4 toc_CVToC.4 driverstateCVToC.4" vType="vehLVOS911" speedFactor="1.00" vaporized=""/>
    <tripinfo id="CVToC.1" depart="3.50" departLane="entry_0" departPos="173.54" departSpeed="32.53" departDelay="0.00" arrival="152.20" arrivalLane="e0_0" arrivalPos="4800.00" arrivalSpeed="32.43" duration="148.70" routeLength="4826.46" waitingTime="0.00" waitingCount="0" stopTime="0.00" timeLoss="0.31" rerouteNo="0" devices="tripinfo_CVToC.1 routing_CVToC.1 ssm_CVToC.1 toc_CVToC.1 driverstateCVToC.1" vType="vehLVOS645" speedFactor="0.90" vaporized=""/>
    <tripinfo id="LV.3" depart="13.60" departLane="entry_0" departPos="140.52" departSpeed="33.19" departDelay="0.50" arrival="162.20" arrivalLane="e0_0" arrivalPos="4800.00" arrivalSpeed="33.16" duration="148.60" routeLength="4859.48" waitingTime="0.00" waitingCount="0" stopTime="0.00" timeLoss="2.13" rerouteNo="0" devices="tripinfo_LV.3 routing_LV.3 ssm_LV.3" vType="vehLVOS630" speedFactor="0.92" vaporized=""/>
    <tripinfo id="CAVToC.2" depart="11.30" departLane="entry_1" departPos="11.85" departSpeed="23.22" departDelay="0.00" arrival="163.10" arrivalLane="e0_1" arrivalPos="4800.00" arrivalSpeed="33.99" duration="151.80" routeLength="4988.15" waitingTime="0.00" waitingCount="0" stopTime="0.00" timeLoss="5.09" rerouteNo="0" devices="tripinfo_CAVToC.2 routing_CAVToC.2 ssm_CAVToC.2 toc_CAVToC.2 driverstateCAVToC.2" vType="vehLVOS876" speedFactor="0.94" vaporized=""/>
    <tripinfo id="LV.5" depart="18.20" departLane="entry_0" departPos="77.05" departSpeed="35.33" departDelay="0.20" arrival="163.90" arrivalLane="e0_1" arrivalPos="4800.00" arrivalSpeed="35.23" duration="145.70" routeLength="4922.95" waitingTime="0.00" waitingCount="0" stopTime="0.00" timeLoss="6.27" rerouteNo="0" devices="tripinfo_LV.5 routing_LV.5 ssm_LV.5" vType="vehLVOS488" speedFactor="0.98" vaporized=""/>
    <tripinfo id="CAVToC.0" depart="10.00" departLane="entry_1" departPos="67.86" departSpeed="32.14" departDelay="0.00" arrival="164.60" arrivalLane="e0_0" arrivalPos="4800.00" arrivalSpeed="32.11" duration="154.60" routeLength="4932.14" waitingTime="0.00" waitingCount="0" stopTime="0.00" timeLoss="1.13" rerouteNo="0" devices="tripinfo_CAVToC.0 routing_CAVToC.0 ssm_CAVToC.0 toc_CAVToC.0 driverstateCAVToC.0" vType="vehLVOS228" speedFactor="0.89" vaporized=""/>
    <tripinfo id="CAVToC.3" depart="19.90" departLane="entry_1" departPos="55.35" departSpeed="33.60" departDelay="0.20" arrival="165.50" arrivalLane="e0_1" arrivalPos="4800.00" arrivalSpeed="37.12" duration="145.60" routeLength="4944.65" waitingTime="0.00" waitingCount="0" stopTime="0.00" timeLoss="12.40" rerouteNo="0" devices="tripinfo_CAVToC.3 routing_CAVToC.3 ssm_CAVToC.3 toc_CAVToC.3 driverstateCAVToC.3" vType="vehLVOS517" speedFactor="1.03" vaporized=""/>
    <tripinfo id="CAVToC.4" depart="20.40" departLane="entry_1" departPos="0.80" departSpeed="32.97" departDelay="0.00" arrival="176.40" arrivalLane="e0_0" arrivalPos="4800.00" arrivalSpeed="32.93" duration="156.00" routeLength="4999.20" waitingTime="0.00" waitingCount="0" stopTime="0.00" timeLoss="4.28" rerouteNo="0" devices="tripinfo_CAVToC.4 routing_CAVToC.4 ssm_CAVToC.4 toc_CAVToC.4 driverstateCAVToC.4" vType="vehLVOS975" speedFactor="0.91" vaporized=""/>
    <tripinfo id="CAVToC.5" depart="22.90" departLane="entry_1" departPos="5.55" departSpeed="33.27" departDelay="1.00" arrival="176.50" arrivalLane="e0_1" arrivalPos="4800.00" arrivalSpeed="34.81" duration="153.60" routeLength="4994.45" waitingTime="0.00" waitingCount="0" stopTime="0.00" timeLoss="10.29" rerouteNo="0" devices="tripinfo_CAVToC.5 routing_CAVToC.5 ssm_CAVToC.5 toc_CAVToC.5 driverstateCAVToC.5" vType="vehLVOS194" speedFactor="0.97" vaporized=""/>
    <tripinfo id="LV.8" depart="25.50" departLane="entry_1" departPos="8.96" departSpeed="35.64" departDelay="5.40" arrival="178.40" arrivalLane="e0_1" arrivalPos="4800.00" arrivalSpeed="35.57" duration="152.90" routeLength="4991.04" waitingTime="0.00" waitingCount="0" stopTime="0.00" timeLoss="12.78" rerouteNo="0" devices="tripinfo_LV.8 routing_LV.8 ssm_LV.8" vType="vehLVOS557" speedFactor="0.99" vaporized=""/>
    <tripinfo id="CAVToC.1" depart="10.60" departLane="entry_0" departPos="199.90" departSpeed="28.27" departDelay="0.00" arrival="180.50" arrivalLane="e0_0" arrivalPos="4800.00" arrivalSpeed="28.26" duration="169.90" routeLength="4800.10" waitingTime="0.00" waitingCount="0" stopTime="0.00" timeLoss="0.04" rerouteNo="0" devices="tripinfo_CAVToC.1 routing_CAVToC.1 ssm_CAVToC.1 toc_CAVToC.1 driverstateCAVToC.1" vType="vehLVOS103" speedFactor="0.78" vaporized=""/>
    <tripinfo id="CVToC.9" depart="27.90" departLane="entry_1" departPos="5.78" departSpeed="35.21" departDelay="3.10" arrival="180.80" arrivalLane="e0_1" arrivalPos="4800.00" arrivalSpeed="39.60" duration="152.90" routeLength="4994.22" waitingTime="0.00" waitingCount="0" stopTime="0.00" timeLoss="26.77" rerouteNo="0" devices="tripinfo_CVToC.9 routing_CVToC.9 ssm_CVToC.9 toc_CVToC.9 driverstateCVToC.9" vType="vehLVOS45" speedFactor="1.10" vaporized=""/>
    <tripinfo id="LV.6" depart="19.10" departLane="entry_0" departPos="91.28" departSpeed="31.11" departDelay="0.20" arrival="181.80" arrivalLane="e0_0" arrivalPos="4800.00" arrivalSpeed="29.98" duration="162.70" routeLength="4908.72" waitingTime="0.00" waitingCount="0" stopTime="0.00" timeLoss="4.86" rerouteNo="0" devices="tripinfo_LV.6 routing_LV.6 ssm_LV.6" vType="vehLVOS774" speedFactor="0.86" vaporized=""/>
    <tripinfo id="LV.9" depart="22.00" departLane="entry_0" departPos="2.91" departSpeed="34.03" departDelay="0.20" arrival="183.10" arrivalLane="e0_1" arrivalPos="4800.00" arrivalSpeed="34.00" duration="161.10" routeLength="4997.09" waitingTime="0.00" waitingCount="0" stopTime="0.00" timeLoss="14.19" rerouteNo="0" devices="tripinfo_LV.9 routing_LV.9 ssm_LV.9" vType="vehLVOS437" speedFactor="0.94" vaporized=""/>
    <tripinfo id="CVToC.10" depart="30.40" departLane="entry_1" departPos="18.44" departSpeed="34.27" departDelay="3.30" arrival="183.50" arrivalLane="e0_0" arrivalPos="4800.00" arrivalSpeed="33.41" duration="153.10" routeLength="4981.56" waitingTime="0.00" waitingCount="0" stopTime="0.00" timeLoss="13.12" rerouteNo="0" devices="tripinfo_CVToC.10 routing_CVToC.10 ssm_CVToC.10 toc_CVToC.10 driverstateCVToC.10" vType="vehLVOS597" speedFactor="0.99" vaporized=""/>
    <tripinfo id="CAVToC.7" depart="35.10" departLane="entry_1" departPos="21.84" departSpeed="31.44" departDelay="0.30" arrival="186.30" arrivalLane="e0_1" arrivalPos="4800.00" arrivalSpeed="37.51" duration="151.20" routeLength="4978.16" waitingTime="0.00" waitingCount="0" stopTime="0.00" timeLoss="20.54" rerouteNo="0" devices="tripinfo_CAVToC.7 routing_CAVToC.7 ssm_CAVToC.7 toc_CAVToC.7 driverstateCAVToC.7" vType="vehLVOS660" speedFactor="1.06" vaporized=""/>
    <tripinfo id="CAVToC.6" depart="39.20" departLane="entry_1" departPos="19.21" departSpeed="32.15" departDelay="5.60" arrival="188.00" arrivalLane="e0_1" arrivalPos="4800.00" arrivalSpeed="38.12" duration="148.80" routeLength="4980.79" waitingTime="0.00" waitingCount="0" stopTime="0.00" timeLoss="36.08" rerouteNo="0" devices="tripinfo_CAVToC.6 routing_CAVToC.6 ssm_CAVToC.6 toc_CAVToC.6 driverstateCAVToC.6" vType="vehLVOS299" speedFactor="1.22" vaporized=""/>
    <tripinfo id="LV.13" depart="41.10" departLane="entry_0" departPos="47.15" departSpeed="36.93" departDelay="3.30" arrival="189.10" arrivalLane="e0_1" arrivalPos="4800.00" arrivalSpeed="36.92" duration="148.00" routeLength="4952.85" waitingTime="0.00" waitingCount="0" stopTime="0.00" timeLoss="13.82" rerouteNo="0" devices="tripinfo_LV.13 routing_LV.13 ssm_LV.13" vType="vehLVOS81" speedFactor="1.02" vaporized=""/>
    <tripinfo id="CVToC.13" depart="32.70" departLane="entry_1" departPos="29.63" departSpeed="30.58" departDelay="0.70" arrival="195.80" arrivalLane="e0_0" arrivalPos="4800.00" arrivalSpeed="30.55" duration="163.10" routeLength="4970.37" waitingTime="0.00" waitingCount="0" stopTime="0.00" timeLoss="0.50" rerouteNo="0" devices="tripinfo_CVToC.13 routing_CVToC.13 ssm_CVToC.13 toc_CVToC.13 driverstateCVToC.13" vType="vehLVOS496" speedFactor="0.85" vaporized=""/>
    <tripinfo id="LV.15" depart="44.90" departLane="entry_0" departPos="31.44" departSpeed="34.75" departDelay="2.60" arrival="196.90" arrivalLane="e0_1" arrivalPos="4800.00" arrivalSpeed="34.75" duration="152.00" routeLength="4968.56" waitingTime="0.00" waitingCount="0" stopTime="0.00" timeLoss="9.03" rerouteNo="0" devices="tripinfo_LV.15 routing_LV.15 ssm_LV.15" vType="vehLVOS180" speedFactor="0.96" vaporized=""/>
    <tripinfo id="LV.12" depart="37.40" departLane="entry_1" departPos="55.54" departSpeed="30.97" departDelay="2.90" arrival="198.40" arrivalLane="e0_0" arrivalPos="4800.00" arrivalSpeed="30.94" duration="161.00" routeLength="4944.46" waitingTime="0.00" waitingCount="0" stopTime="0.00" timeLoss="1.24" rerouteNo="0" devices="tripinfo_LV.12 routing_LV.12 ssm_LV.12" vType="vehLVOS625" speedFactor="0.86" vaporized=""/>
    <tripinfo id="CAVToC.11" depart="48.60" departLane="entry_1" departPos="4.59" departSpeed="31.50" departDelay="5.70" arrival="200.10" arrivalLane="e0_1" arrivalPos="4800.00" arrivalSpeed="40.71" duration="151.50" routeLength="4995.41" waitingTime="0.00" waitingCount="0" stopTime="0.00" timeLoss="28.75" rerouteNo="0" devices="tripinfo_CAVToC.11 routing_CAVToC.11 ssm_CAVToC.11 toc_CAVToC.11 driverstateCAVToC.11" vType="vehLVOS511" speedFactor="1.13" vaporized=""/>
    <tripinfo id="CAVToC.9" depart="42.20" departLane="entry_1" departPos="47.12" departSpeed="31.82" departDelay="0.60" arrival="201.60" arrivalLane="e0_0" arrivalPos="4800.00" arrivalSpeed="31.77" duration="159.40" routeLength="4952.88" waitingTime="0.00" waitingCount="0" stopTime="0.00" timeLoss="3.66" rerouteNo="0" devices="tripinfo_CAVToC.9 routing_CAVToC.9 ssm_CAVToC.9 toc_CAVToC.9 driverstateCAVToC.9" vType="vehLVOS461" speedFactor="0.88" vaporized=""/>
    <tripinfo id="CAVToC.13" depart="54.30" departLane="entry_1" departPos="108.26" departSpeed="31.63" departDelay="10.30" arrival="202.20" arrivalLane="e0_1" arrivalPos="4800.00" arrivalSpeed="34.54" duration="147.90" routeLength="4891.74" waitingTime="0.00" waitingCount="0" stopTime="0.00" timeLoss="6.23" rerouteNo="0" devices="tripinfo_CAVToC.13 routing_CAVToC.13 ssm_CAVToC.13 toc_CAVToC.13 driverstateCAVToC.13" vType="vehLVOS706" speedFactor="0.96" vaporized=""/>
    <tripinfo id="CVToC.17" depart="54.30" departLane="entry_1" departPos="20.36" departSpeed="32.53" departDelay="7.30" arrival="204.30" arrivalLane="e0_1" arrivalPos="4800.00" arrivalSpeed="38.58" duration="150.00" routeLength="4979.64" waitingTime="0.00" waitingCount="0" stopTime="0.00" timeLoss="23.05" rerouteNo="0" devices="tripinfo_CVToC.17 routing_CVToC.17 ssm_CVToC.17 toc_CVToC.17 driverstateCVToC.17" vType="vehLVOS223" speedFactor="1.09" vaporized=""/>
    <tripinfo id="LV.18" depart="59.30" departLane="entry_1" departPos="44.88" departSpeed="34.86" departDelay="8.50" arrival="208.50" arrivalLane="e0_1" arrivalPos="4800.00" arrivalSpeed="34.83" duration="149.20" routeLength="4955.12" waitingTime="0.00" waitingCount="0" stopTime="0.00" timeLoss="6.97" rerouteNo="0" devices="tripinfo_LV.18 routing_LV.18 ssm_LV.18" vType="vehLVOS769" speedFactor="0.97" vaporized=""/>
    <tripinfo id="CVToC.19" depart="58.40" departLane="entry_1" departPos="77.75" departSpeed="31.40" departDelay="9.80" arrival="209.30" arrivalLane="e0_0" arrivalPos="4800.00" arrivalSpeed="33.34" duration="150.90" routeLength="4922.25" waitingTime="0.00" waitingCount="0" stopTime="0.00" timeLoss="3.38" rerouteNo="0" devices="tripinfo_CVToC.19 routing_CVToC.19 ssm_CVToC.19 toc_CVToC.19 driverstateCVToC.19" vType="vehLVOS341" speedFactor="0.92" vaporized=""/>
    <tripinfo id="LV.16" depart="62.10" departLane="entry_1" departPos="3.90" departSpeed="37.44" departDelay="12.30" arrival="211.10" arrivalLane="e0_1" arrivalPos="4800.00" arrivalSpeed="37.37" duration="149.00" routeLength="4996.10" waitingTime="0.00" waitingCount="0" stopTime="0.00" timeLoss="15.51" rerouteNo="0" devices="tripinfo_LV.16 routing_LV.16 ssm_LV.16" vType="vehLVOS918" speedFactor="1.04" vaporized=""/>
    <tripinfo id="LV.17" depart="62.50" departLane="entry_0" departPos="32.90" departSpeed="33.20" departDelay="12.00" arrival="215.10" arrivalLane="e0_0" arrivalPos="4800.00" arrivalSpeed="33.16" duration="152.60" routeLength="4967.10" waitingTime="0.00" waitingCount="0" stopTime="0.00" timeLoss="2.97" rerouteNo="0" devices="tripinfo_LV.17 routing_LV.17 ssm_LV.17" vType="vehLVOS397" speedFactor="0.92" vaporized=""/>
    <tripinfo id="LV.7" depart="20.10" departLane="entry_0" departPos="41.27" departSpeed="29.79" departDelay="0.30" arrival="222.30" arrivalLane="e0_0" arrivalPos="4800.00" arrivalSpeed="29.59" duration="202.20" routeLength="4958.73" waitingTime="0.00" waitingCount="0" stopTime="0.00" timeLoss="35.65" rerouteNo="0" devices="tripinfo_LV.7 routing_LV.7 ssm_LV.7" vType="vehLVOS513" speedFactor="0.82" vaporized=""/>
    <tripinfo id="CVToC.20" depart="64.50" departLane="entry_1" departPos="23.53" departSpeed="31.85" departDelay="12.70" arrival="222.80" arrivalLane="e0_1" arrivalPos="4800.00" arrivalSpeed="31.83" duration="158.30" routeLength="4976.47" waitingTime="0.00" waitingCount="0" stopTime="0.00" timeLoss="2.03" rerouteNo="0" devices="tripinfo_CVToC.20 routing_CVToC.20 ssm_CVToC.20 toc_CVToC.20 driverstateCVToC.20" vType="vehLVOS799" speedFactor="0.88" vaporized=""/>
    <tripinfo id="LV.19" depart="69.20" departLane="entry_0" departPos="191.42" departSpeed="27.29" departDelay="14.70" arrival="224.00" arrivalLane="e0_1" arrivalPos="4800.00" arrivalSpeed="33.36" duration="154.80" routeLength="4808.58" waitingTime="0.00" waitingCount="0" stopTime="0.00" timeLoss="11.61" rerouteNo="0" devices="tripinfo_LV.19 routing_LV.19 ssm_LV.19" vType="vehLVOS766" speedFactor="0.93" vaporized=""/>
    <tripinfo id="CAVToC.17" depart="69.80" departLane="entry_1" departPos="105.64" departSpeed="28.77" departDelay="13.10" arrival="226.80" arrivalLane="e0_1" arrivalPos="4800.00" arrivalSpeed="36.94" duration="157.00" routeLength="4894.36" waitingTime="0.00" waitingCount="0" stopTime="0.00" timeLoss="28.23" rerouteNo="0" devices="tripinfo_CAVToC.17 routing_CAVToC.17 ssm_CAVToC.17 toc_CAVToC.17 driverstateCAVToC.17" vType="vehLVOS456" speedFactor="1.05" vaporized=""/>
    <tripinfo id="CVToC.22" depart="69.80" departLane="entry_1" departPos="25.26" departSpeed="29.82" departDelay="12.20" arrival="227.70" arrivalLane="e0_1" arrivalPos="4800.00" arrivalSpeed="37.12" duration="157.90" routeLength="4974.74" waitingTime="0.00" waitingCount="0" stopTime="0.00" timeLoss="28.73" rerouteNo="0" devices="tripinfo_CVToC.22 routing_CVToC.22 ssm_CVToC.22 toc_CVToC.22 driverstateCVToC.22" vType="vehLVOS989" speedFactor="1.07" vaporized=""/>
    <tripinfo id="LV.14" depart="75.50" departLane="entry_1" departPos="11.28" departSpeed="43.01" departDelay="34.30" arrival="229.40" arrivalLane="e0_1" arrivalPos="4800.00" arrivalSpeed="38.42" duration="153.90" routeLength="4988.72" waitingTime="0.00" waitingCount="0" stopTime="0.00" timeLoss="37.91" rerouteNo="0" devices="tripinfo_LV.14 routing_LV.14 ssm_LV.14" vType="vehLVOS310" speedFactor="1.19" vaporized=""/>
    <tripinfo id="LV.22" depart="76.40" departLane="entry_1" departPos="24.56" departSpeed="41.03" departDelay="13.20" arrival="230.80" arrivalLane="e0_1" arrivalPos="4800.00" arrivalSpeed="39.32" duration="154.40" routeLength="4975.44" waitingTime="0.00" waitingCount="0" stopTime="0.00" timeLoss="33.05" rerouteNo="0" devices="tripinfo_LV.22 routing_LV.22 ssm_LV.22" vType="vehLVOS974" speedFactor="1.14" vaporized=""/>
    <tripinfo id="LV.23" depart="76.40" departLane="entry_1" departPos="16.96" departSpeed="32.57" departDelay="11.30" arrival="233.50" arrivalLane="e0_1" arrivalPos="4800.00" arrivalSpeed="32.48" duration="157.10" routeLength="4983.04" waitingTime="0.00" waitingCount="0" stopTime="0.00" timeLoss="4.08" rerouteNo="0" devices="tripinfo_LV.23 routing_LV.23 ssm_LV.23" vType="vehLVOS933" speedFactor="0.90" vaporized=""/>
    <tripinfo id="LV.11" depart="78.40" departLane="entry_0" departPos="5.27" departSpeed="47.54" departDelay="47.60" arrival="234.60" arrivalLane="e0_1" arrivalPos="4800.00" arrivalSpeed="33.98" duration="156.20" routeLength="4994.73" waitingTime="0.00" waitingCount="0" stopTime="0.00" timeLoss="51.08" rerouteNo="0" devices="tripinfo_LV.11 routing_LV.11 ssm_LV.11" vType="vehLVOS233" speedFactor="1.32" vaporized=""/>
    <tripinfo id="LV.2" depart="10.20" departLane="entry_1" departPos="66.69" departSpeed="21.84" departDelay="0.00" arrival="236.30" arrivalLane="e0_0" arrivalPos="4800.00" arrivalSpeed="21.83" duration="226.10" routeLength="4933.31" waitingTime="0.00" waitingCount="0" stopTime="0.00" timeLoss="0.22" rerouteNo="0" devices="tripinfo_LV.2 routing_LV.2 ssm_LV.2" vType="vehLVOS719" speedFactor="0.60" vaporized=""/>
    <tripinfo id="CAVToC.19" depart="78.60" departLane="entry_1" departPos="4.86" departSpeed="33.15" departDelay="18.50" arrival="237.20" arrivalLane="e0_1" arrivalPos="4800.00" arrivalSpeed="36.17" duration="158.60" routeLength="4995.14" waitingTime="0.00" waitingCount="0" stopTime="0.00" timeLoss="25.64" rerouteNo="0" devices="tripinfo_CAVToC.19 routing_CAVToC.19 ssm_CAVToC.19 toc_CAVToC.19 driverstateCAVToC.19" vType="vehLVOS583" speedFactor="1.04" vaporized=""/>
    <tripinfo id="CVToC.5" depart="13.90" departLane="entry_0" departPos="66.78" departSpeed="33.63" departDelay="0.20" arrival="238.10" arrivalLane="e0_0" arrivalPos="4800.00" arrivalSpeed="24.03" duration="224.20" routeLength="4933.22" waitingTime="0.00" waitingCount="0" stopTime="0.00" timeLoss="93.66" rerouteNo="0" devices="tripinfo_CVToC.5 routing_CVToC.5 ssm_CVToC.5 toc_CVToC.5 driverstateCVToC.5" vType="vehLVOS998" speedFactor="1.05" vaporized=""/>
    <tripinfo id="CVToC.23" depart="80.90" departLane="entry_1" departPos="4.39" departSpeed="33.26" departDelay="22.60" arrival="238.70" arrivalLane="e0_1" arrivalPos="4800.00" arrivalSpeed="35.76" duration="157.80" routeLength="4995.61" waitingTime="0.00" waitingCount="0" stopTime="0.00" timeLoss="21.23" rerouteNo="0" devices="tripinfo_CVToC.23 routing_CVToC.23 ssm_CVToC.23 toc_CVToC.23 driverstateCVToC.23" vType="vehLVOS224" speedFactor="1.01" vaporized=""/>
    <tripinfo id="CAVToC.23" depart="86.20" departLane="entry_1" departPos="98.42" departSpeed="32.15" departDelay="18.80" arrival="240.20" arrivalLane="e0_1" arrivalPos="4800.00" arrivalSpeed="35.90" duration="154.00" routeLength="4901.58" waitingTime="0.00" waitingCount="0" stopTime="0.00" timeLoss="17.70" rerouteNo="0" devices="tripinfo_CAVToC.23 routing_CAVToC.23 ssm_CAVToC.23 toc_CAVToC.23 driverstateCAVToC.23" vType="vehLVOS620" speedFactor="1.00" vaporized=""/>
    <tripinfo id="CVToC.6" depart="19.20" departLane="entry_0" departPos="27.43" departSpeed="31.10" departDelay="0.20" arrival="240.30" arrivalLane="e0_0" arrivalPos="4800.00" arrivalSpeed="25.11" duration="221.10" routeLength="4972.57" waitingTime="0.00" waitingCount="0" stopTime="0.00" timeLoss="61.18" rerouteNo="0" devices="tripinfo_CVToC.6 routing_CVToC.6 ssm_CVToC.6 toc_CVToC.6 driverstateCVToC.6" vType="vehLVOS345" speedFactor="0.86" vaporized=""/>
    <tripinfo id="CVToC.29" depart="86.20" departLane="entry_1" departPos="13.40" departSpeed="32.95" departDelay="14.40" arrival="241.40" arrivalLane="e0_1" arrivalPos="4800.00" arrivalSpeed="38.53" duration="155.20" routeLength="4986.60" waitingTime="0.00" waitingCount="0" stopTime="0.00" timeLoss="27.30" rerouteNo="0" devices="tripinfo_CVToC.29 routing_CVToC.29 ssm_CVToC.29 toc_CVToC.29 driverstateCVToC.29" vType="vehLVOS44" speedFactor="1.08" vaporized=""/>
    <tripinfo id="CVToC.7" depart="24.10" departLane="entry_0" departPos="4.05" departSpeed="32.97" departDelay="1.70" arrival="241.60" arrivalLane="e0_0" arrivalPos="4800.00" arrivalSpeed="27.38" duration="217.50" routeLength="4995.95" waitingTime="0.00" waitingCount="0" stopTime="0.00" timeLoss="65.97" rerouteNo="0" devices="tripinfo_CVToC.7 routing_CVToC.7 ssm_CVToC.7 toc_CVToC.7 driverstateCVToC.7" vType="vehLVOS930" speedFactor="0.91" vaporized=""/>
    <tripinfo id="CAVToC.21" depart="88.10" departLane="entry_1" departPos="0.48" departSpeed="32.95" departDelay="26.40" arrival="242.80" arrivalLane="e0_1" arrivalPos="4800.00" arrivalSpeed="34.53" duration="154.70" routeLength="4999.52" waitingTime="0.00" waitingCount="0" stopTime="0.00" timeLoss="9.89" rerouteNo="0" devices="tripinfo_CAVToC.21 routing_CAVToC.21 ssm_CAVToC.21 toc_CAVToC.21 driverstateCAVToC.21" vType="vehLVOS448" speedFactor="0.96" vaporized=""/>
    <tripinfo id="CVToC.8" depart="26.60" departLane="entry_0" departPos="3.47" departSpeed="33.22" departDelay="3.30" arrival="243.90" arrivalLane="e0_0" arrivalPos="4800.00" arrivalSpeed="25.42" duration="217.30" routeLength="4996.53" waitingTime="0.00" waitingCount="0" stopTime="0.00" timeLoss="89.45" rerouteNo="0" devices="tripinfo_CVToC.8 routing_CVToC.8 ssm_CVToC.8 toc_CVToC.8 driverstateCVToC.8" vType="vehLVOS508" speedFactor="1.08" vaporized=""/>
    <tripinfo id="CVToC.26" depart="91.80" departLane="entry_1" departPos="31.43" departSpeed="33.50" departDelay="24.20" arrival="244.00" arrivalLane="e0_1" arrivalPos="4800.00" arrivalSpeed="36.75" duration="152.20" routeLength="4968.57" waitingTime="0.00" waitingCount="0" stopTime="0.00" timeLoss="33.74" rerouteNo="0" devices="tripinfo_CVToC.26 routing_CVToC.26 ssm_CVToC.26 toc_CVToC.26 driverstateCVToC.26" vType="vehLVOS952" speedFactor="1.16" vaporized=""/>
    <tripinfo id="CVToC.11" depart="31.80" departLane="entry_0" departPos="97.09" departSpeed="29.20" departDelay="1.70" arrival="245.10" arrivalLane="e0_0" arrivalPos="4800.00" arrivalSpeed="26.94" duration="213.30" routeLength="4902.91" waitingTime="0.00" waitingCount="0" stopTime="0.00" timeLoss="60.40" rerouteNo="0" devices="tripinfo_CVToC.11 routing_CVToC.11 ssm_CVToC.11 toc_CVToC.11 driverstateCVToC.11" vType="vehLVOS401" speedFactor="0.89" vaporized=""/>
    <tripinfo id="CVToC.27" depart="93.90" departLane="entry_1" departPos="13.80" departSpeed="34.02" departDelay="24.70" arrival="247.10" arrivalLane="e0_1" arrivalPos="4800.00" arrivalSpeed="37.49" duration="153.20" routeLength="4986.20" waitingTime="0.00" waitingCount="0" stopTime="0.00" timeLoss="34.43" rerouteNo="0" devices="tripinfo_CVToC.27 routing_CVToC.27 ssm_CVToC.27 toc_CVToC.27 driverstateCVToC.27" vType="vehLVOS699" speedFactor="1.16" vaporized=""/>
    <tripinfo id="CVToC.12" depart="31.80" departLane="entry_0" departPos="16.18" departSpeed="30.05" departDelay="1.10" arrival="247.30" arrivalLane="e0_0" arrivalPos="4800.00" arrivalSpeed="28.06" duration="215.50" routeLength="4983.82" waitingTime="0.00" waitingCount="0" stopTime="0.00" timeLoss="78.66" rerouteNo="0" devices="tripinfo_CVToC.12 routing_CVToC.12 ssm_CVToC.12 toc_CVToC.12 driverstateCVToC.12" vType="vehLVOS709" speedFactor="1.01" vaporized=""/>
    <tripinfo id="CVToC.14" depart="38.70" departLane="entry_0" departPos="134.47" departSpeed="29.92" departDelay="0.60" arrival="248.80" arrivalLane="e0_0" arrivalPos="4800.00" arrivalSpeed="27.09" duration="210.10" routeLength="4865.53" waitingTime="0.00" waitingCount="0" stopTime="0.00" timeLoss="79.16" rerouteNo="0" devices="tripinfo_CVToC.14 routing_CVToC.14 ssm_CVToC.14 toc_CVToC.14 driverstateCVToC.14" vType="vehLVOS479" speedFactor="1.03" vaporized=""/>
    <tripinfo id="CAVToC.24" depart="97.30" departLane="entry_1" departPos="45.19" departSpeed="33.59" departDelay="29.30" arrival="249.20" arrivalLane="e0_1" arrivalPos="4800.00" arrivalSpeed="39.21" duration="151.90" routeLength="4954.81" waitingTime="0.00" waitingCount="0" stopTime="0.00" timeLoss="25.62" rerouteNo="0" devices="tripinfo_CAVToC.24 routing_CAVToC.24 ssm_CAVToC.24 toc_CAVToC.24 driverstateCAVToC.24" vType="vehLVOS532" speedFactor="1.09" vaporized=""/>
    <tripinfo id="CVToC.15" depart="39.80" departLane="entry_0" departPos="93.76" departSpeed="30.63" departDelay="0.50" arrival="249.90" arrivalLane="e0_0" arrivalPos="4800.00" arrivalSpeed="28.72" duration="210.10" routeLength="4906.24" waitingTime="0.00" waitingCount="0" stopTime="0.00" timeLoss="68.72" rerouteNo="0" devices="tripinfo_CVToC.15 routing_CVToC.15 ssm_CVToC.15 toc_CVToC.15 driverstateCVToC.15" vType="vehLVOS976" speedFactor="0.96" vaporized=""/>
    <tripinfo id="CAVToC.27" depart="102.00" departLane="entry_1" departPos="117.47" departSpeed="32.32" departDelay="29.10" arrival="250.30" arrivalLane="e0_1" arrivalPos="4800.00" arrivalSpeed="39.70" duration="148.30" routeLength="4882.53" waitingTime="0.00" waitingCount="0" stopTime="0.00" timeLoss="25.27" rerouteNo="0" devices="tripinfo_CAVToC.27 routing_CAVToC.27 ssm_CAVToC.27 toc_CAVToC.27 driverstateCAVToC.27" vType="vehLVOS188" speedFactor="1.10" vaporized=""/>
    <tripinfo id="CAVToC.8" depart="42.10" departLane="entry_0" departPos="7.91" departSpeed="33.60" departDelay="1.60" arrival="251.30" arrivalLane="e0_0" arrivalPos="4800.00" arrivalSpeed="29.85" duration="209.20" routeLength="4992.09" waitingTime="0.00" waitingCount="0" stopTime="0.00" timeLoss="63.82" rerouteNo="0" devices="tripinfo_CAVToC.8 routing_CAVToC.8 ssm_CAVToC.8 toc_CAVToC.8 driverstateCAVToC.8" vType="vehLVOS848" speedFactor="0.95" vaporized=""/>