<?xml version="1.0" encoding="UTF-8"?>

<!-- generated on 09/23/20 08:40:04 by Eclipse SUMO Version 1.6.0
<configuration xmlns:xsi="http://www.w3.org/2001/XMLSchema-instance" xsi:noNamespaceSchemaLocation="http://sumo.dlr.de/xsd/sumoConfiguration.xsd">

    <input>
        <net-file value="scenario/UC5_1.net.xml"/>
        <route-files value="scenario/routes_trafficMix_0_trafficDemand_1_driverBehaviour_OS_seed_0.xml"/>
        <additional-files value="scenario/additionalsOutput_trafficMix_0_trafficDemand_1_driverBehaviour_OS_seed_0.xml,scenario/vTypesCAVToC_OS.add.xml,scenario/vTypesCVToC_OS.add.xml,scenario/vTypesLV_OS.add.xml,scenario/shapes.add.xml,scenario/view.add.xml"/>
    </input>

    <output>
        <tripinfo-output value="C:\Users\laborknecht\Aris\workspace\ma-branch\tor-distribution/outputs/simulations/DQN__2020-09-22_13-29-46__20200923-071300/tripinfo_9.xml"/>
    </output>

    <time>
        <step-length value="0.1"/>
    </time>

    <processing>
        <step-method.ballistic value="true"/>
        <ignore-route-errors value="true"/>
        <lanechange.duration value="2.5"/>
    </processing>

    <report>
        <no-step-log value="true"/>
    </report>

    <toc_device>
        <device.toc.ogNewTimeHeadway value="100"/>
        <device.toc.ogNewSpaceHeadway value="5"/>
        <device.toc.ogMaxDecel value="1"/>
        <device.toc.ogChangeRate value="1"/>
    </toc_device>

    <traci_server>
        <remote-port value="50587"/>
    </traci_server>

    <random_number>
        <seed value="1033"/>
    </random_number>

    <gui_only>
        <tracker-interval value="0.1"/>
    </gui_only>

</configuration>
-->

<tripinfos xmlns:xsi="http://www.w3.org/2001/XMLSchema-instance" xsi:noNamespaceSchemaLocation="http://sumo.dlr.de/xsd/tripinfo_file.xsd">
    <tripinfo id="CAVToC.1" depart="3.70" departLane="entry_1" departPos="199.90" departSpeed="35.60" departDelay="0.00" arrival="131.60" arrivalLane="e0_1" arrivalPos="4800.00" arrivalSpeed="40.48" duration="127.90" routeLength="4800.10" waitingTime="0.00" waitingCount="0" stopTime="0.00" timeLoss="9.26" rerouteNo="0" devices="tripinfo_CAVToC.1 routing_CAVToC.1 ssm_CAVToC.1 toc_CAVToC.1 driverstateCAVToC.1" vType="vehLVOS374" speedFactor="1.12" vaporized=""/>
    <tripinfo id="CVToC.0" depart="0.30" departLane="entry_0" departPos="199.90" departSpeed="36.57" departDelay="0.00" arrival="131.90" arrivalLane="e0_0" arrivalPos="4800.00" arrivalSpeed="36.44" duration="131.60" routeLength="4800.10" waitingTime="0.00" waitingCount="0" stopTime="0.00" timeLoss="0.33" rerouteNo="0" devices="tripinfo_CVToC.0 routing_CVToC.0 ssm_CVToC.0 toc_CVToC.0 driverstateCVToC.0" vType="vehLVOS588" speedFactor="1.01" vaporized=""/>
    <tripinfo id="CAVToC.2" depart="5.00" departLane="entry_1" departPos="153.93" departSpeed="36.31" departDelay="0.00" arrival="134.00" arrivalLane="e0_1" arrivalPos="4800.00" arrivalSpeed="42.06" duration="129.00" routeLength="4846.07" waitingTime="0.00" waitingCount="0" stopTime="0.00" timeLoss="13.81" rerouteNo="0" devices="tripinfo_CAVToC.2 routing_CAVToC.2 ssm_CAVToC.2 toc_CAVToC.2 driverstateCAVToC.2" vType="vehLVOS746" speedFactor="1.17" vaporized=""/>
    <tripinfo id="CAVToC.0" depart="1.10" departLane="entry_1" departPos="199.90" departSpeed="34.84" departDelay="0.00" arrival="139.00" arrivalLane="e0_0" arrivalPos="4800.00" arrivalSpeed="34.81" duration="137.90" routeLength="4800.10" waitingTime="0.00" waitingCount="0" stopTime="0.00" timeLoss="0.13" rerouteNo="0" devices="tripinfo_CAVToC.0 routing_CAVToC.0 ssm_CAVToC.0 toc_CAVToC.0 driverstateCAVToC.0" vType="vehLVOS22" speedFactor="0.96" vaporized=""/>
    <tripinfo id="CVToC.1" depart="2.60" departLane="entry_0" departPos="199.90" departSpeed="34.22" departDelay="0.00" arrival="144.10" arrivalLane="e0_0" arrivalPos="4800.00" arrivalSpeed="34.21" duration="141.50" routeLength="4800.10" waitingTime="0.00" waitingCount="0" stopTime="0.00" timeLoss="1.20" rerouteNo="0" devices="tripinfo_CVToC.1 routing_CVToC.1 ssm_CVToC.1 toc_CVToC.1 driverstateCVToC.1" vType="vehLVOS968" speedFactor="0.95" vaporized=""/>
    <tripinfo id="CAVToC.3" depart="5.40" departLane="entry_1" departPos="7.75" departSpeed="36.47" departDelay="0.00" arrival="145.20" arrivalLane="e0_1" arrivalPos="4800.00" arrivalSpeed="38.91" duration="139.80" routeLength="4992.25" waitingTime="0.00" waitingCount="0" stopTime="0.00" timeLoss="11.51" rerouteNo="0" devices="tripinfo_CAVToC.3 routing_CAVToC.3 ssm_CAVToC.3 toc_CAVToC.3 driverstateCAVToC.3" vType="vehLVOS277" speedFactor="1.08" vaporized=""/>
    <tripinfo id="CVToC.2" depart="5.10" departLane="entry_1" departPos="82.64" departSpeed="36.34" departDelay="0.00" arrival="145.50" arrivalLane="e0_0" arrivalPos="4800.00" arrivalSpeed="36.37" duration="140.40" routeLength="4917.36" waitingTime="0.00" waitingCount="0" stopTime="0.00" timeLoss="5.25" rerouteNo="0" devices="tripinfo_CVToC.2 routing_CVToC.2 ssm_CVToC.2 toc_CVToC.2 driverstateCVToC.2" vType="vehLVOS292" speedFactor="1.01" vaporized=""/>
    <tripinfo id="CAVToC.4" depart="6.90" departLane="entry_0" departPos="112.30" departSpeed="34.77" departDelay="0.00" arrival="146.00" arrivalLane="e0_1" arrivalPos="4800.00" arrivalSpeed="41.60" duration="139.10" routeLength="4887.70" waitingTime="0.00" waitingCount="0" stopTime="0.00" timeLoss="26.41" rerouteNo="0" devices="tripinfo_CAVToC.4 routing_CAVToC.4 ssm_CAVToC.4 toc_CAVToC.4 driverstateCAVToC.4" vType="vehLVOS376" speedFactor="1.20" vaporized=""/>
    <tripinfo id="CVToC.3" depart="6.80" departLane="entry_0" departPos="199.90" departSpeed="33.72" departDelay="0.20" arrival="151.00" arrivalLane="e0_0" arrivalPos="4800.00" arrivalSpeed="33.72" duration="144.20" routeLength="4800.10" waitingTime="0.00" waitingCount="0" stopTime="0.00" timeLoss="1.83" rerouteNo="0" devices="tripinfo_CVToC.3 routing_CVToC.3 ssm_CVToC.3 toc_CVToC.3 driverstateCVToC.3" vType="vehLVOS844" speedFactor="0.93" vaporized=""/>
    <tripinfo id="CAVToC.8" depart="11.90" departLane="entry_1" departPos="72.81" departSpeed="31.02" departDelay="0.00" arrival="151.00" arrivalLane="e0_1" arrivalPos="4800.00" arrivalSpeed="37.56" duration="139.10" routeLength="4927.19" waitingTime="0.00" waitingCount="0" stopTime="0.00" timeLoss="7.95" rerouteNo="0" devices="tripinfo_CAVToC.8 routing_CAVToC.8 ssm_CAVToC.8 toc_CAVToC.8 driverstateCAVToC.8" vType="vehLVOS602" speedFactor="1.04" vaporized=""/>
    <tripinfo id="CAVToC.6" depart="9.60" departLane="entry_1" departPos="83.15" departSpeed="35.80" departDelay="0.00" arrival="152.70" arrivalLane="e0_0" arrivalPos="4800.00" arrivalSpeed="35.75" duration="143.10" routeLength="4916.85" waitingTime="0.00" waitingCount="0" stopTime="0.00" timeLoss="5.74" rerouteNo="0" devices="tripinfo_CAVToC.6 routing_CAVToC.6 ssm_CAVToC.6 toc_CAVToC.6 driverstateCAVToC.6" vType="vehLVOS672" speedFactor="0.99" vaporized=""/>
    <tripinfo id="CAVToC.9" depart="13.60" departLane="entry_1" departPos="26.24" departSpeed="32.39" departDelay="0.00" arrival="155.10" arrivalLane="e0_1" arrivalPos="4800.00" arrivalSpeed="41.30" duration="141.50" routeLength="4973.76" waitingTime="0.00" waitingCount="0" stopTime="0.00" timeLoss="29.61" rerouteNo="0" devices="tripinfo_CAVToC.9 routing_CAVToC.9 ssm_CAVToC.9 toc_CAVToC.9 driverstateCAVToC.9" vType="vehLVOS502" speedFactor="1.23" vaporized=""/>
    <tripinfo id="CAVToC.5" depart="9.20" departLane="entry_0" departPos="121.30" departSpeed="34.77" departDelay="0.00" arrival="155.70" arrivalLane="e0_0" arrivalPos="4800.00" arrivalSpeed="34.93" duration="146.50" routeLength="4878.70" waitingTime="0.00" waitingCount="0" stopTime="0.00" timeLoss="7.04" rerouteNo="0" devices="tripinfo_CAVToC.5 routing_CAVToC.5 ssm_CAVToC.5 toc_CAVToC.5 driverstateCAVToC.5" vType="vehLVOS29" speedFactor="0.97" vaporized=""/>
    <tripinfo id="CVToC.5" depart="16.60" departLane="entry_1" departPos="7.31" departSpeed="29.91" departDelay="0.40" arrival="156.70" arrivalLane="e0_1" arrivalPos="4800.00" arrivalSpeed="40.67" duration="140.10" routeLength="4992.69" waitingTime="0.00" waitingCount="0" stopTime="0.00" timeLoss="17.41" rerouteNo="0" devices="tripinfo_CVToC.5 routing_CVToC.5 ssm_CVToC.5 toc_CVToC.5 driverstateCVToC.5" vType="vehLVOS703" speedFactor="1.13" vaporized=""/>
    <tripinfo id="CVToC.7" depart="20.40" departLane="entry_1" departPos="36.44" departSpeed="30.84" departDelay="2.00" arrival="158.70" arrivalLane="e0_1" arrivalPos="4800.00" arrivalSpeed="40.38" duration="138.30" routeLength="4963.56" waitingTime="0.00" waitingCount="0" stopTime="0.00" timeLoss="15.36" rerouteNo="0" devices="tripinfo_CVToC.7 routing_CVToC.7 ssm_CVToC.7 toc_CVToC.7 driverstateCVToC.7" vType="vehLVOS74" speedFactor="1.12" vaporized=""/>
    <tripinfo id="LV.1" depart="12.20" departLane="entry_0" departPos="5.24" departSpeed="35.19" departDelay="0.00" arrival="160.60" arrivalLane="e0_0" arrivalPos="4800.00" arrivalSpeed="35.12" duration="148.40" routeLength="4994.76" waitingTime="0.00" waitingCount="0" stopTime="0.00" timeLoss="6.36" rerouteNo="0" devices="tripinfo_LV.1 routing_LV.1 ssm_LV.1" vType="vehLVOS439" speedFactor="0.97" vaporized=""/>
    <tripinfo id="CAVToC.12" depart="22.30" departLane="entry_1" departPos="16.71" departSpeed="31.24" departDelay="0.00" arrival="168.40" arrivalLane="e0_0" arrivalPos="4800.00" arrivalSpeed="34.97" duration="146.10" routeLength="4983.29" waitingTime="0.00" waitingCount="0" stopTime="0.00" timeLoss="3.57" rerouteNo="0" devices="tripinfo_CAVToC.12 routing_CAVToC.12 ssm_CAVToC.12 toc_CAVToC.12 driverstateCAVToC.12" vType="vehLVOS29" speedFactor="0.97" vaporized=""/>
    <tripinfo id="CAVToC.7" depart="11.20" departLane="entry_0" departPos="34.29" departSpeed="34.51" departDelay="0.00" arrival="170.70" arrivalLane="e0_1" arrivalPos="4800.00" arrivalSpeed="35.54" duration="159.50" routeLength="4965.71" waitingTime="0.00" waitingCount="0" stopTime="0.00" timeLoss="19.74" rerouteNo="0" devices="tripinfo_CAVToC.7 routing_CAVToC.7 ssm_CAVToC.7 toc_CAVToC.7 driverstateCAVToC.7" vType="vehLVOS198" speedFactor="0.98" vaporized=""/>
    <tripinfo id="CVToC.4" depart="9.50" departLane="entry_0" departPos="51.63" departSpeed="35.18" departDelay="0.00" arrival="171.60" arrivalLane="e0_1" arrivalPos="4800.00" arrivalSpeed="36.57" duration="162.10" routeLength="4948.37" waitingTime="0.00" waitingCount="0" stopTime="0.00" timeLoss="32.06" rerouteNo="0" devices="tripinfo_CVToC.4 routing_CVToC.4 ssm_CVToC.4 toc_CVToC.4 driverstateCVToC.4" vType="vehLVOS777" speedFactor="1.05" vaporized=""/>
    <tripinfo id="LV.0" depart="10.90" departLane="entry_1" departPos="122.09" departSpeed="30.25" departDelay="0.00" arrival="172.70" arrivalLane="e0_0" arrivalPos="4800.00" arrivalSpeed="30.25" duration="161.80" routeLength="4877.91" waitingTime="0.00" waitingCount="0" stopTime="0.00" timeLoss="0.54" rerouteNo="0" devices="tripinfo_LV.0 routing_LV.0 ssm_LV.0" vType="vehLVOS145" speedFactor="0.84" vaporized=""/>
    <tripinfo id="LV.5" depart="27.00" departLane="entry_0" departPos="22.94" departSpeed="41.55" departDelay="3.10" arrival="182.90" arrivalLane="e0_1" arrivalPos="4800.00" arrivalSpeed="41.45" duration="155.90" routeLength="4977.06" waitingTime="0.00" waitingCount="0" stopTime="0.00" timeLoss="36.03" rerouteNo="0" devices="tripinfo_LV.5 routing_LV.5 ssm_LV.5" vType="vehLVOS788" speedFactor="1.15" vaporized=""/>
    <tripinfo id="CAVToC.11" depart="20.80" departLane="entry_0" departPos="23.82" departSpeed="26.45" departDelay="1.00" arrival="185.00" arrivalLane="e0_0" arrivalPos="4800.00" arrivalSpeed="31.33" duration="164.20" routeLength="4976.18" waitingTime="0.00" waitingCount="0" stopTime="0.00" timeLoss="5.78" rerouteNo="0" devices="tripinfo_CAVToC.11 routing_CAVToC.11 ssm_CAVToC.11 toc_CAVToC.11 driverstateCAVToC.11" vType="vehLVOS508" speedFactor="0.87" vaporized=""/>
    <tripinfo id="CAVToC.14" depart="28.00" departLane="entry_1" departPos="52.44" departSpeed="29.74" departDelay="0.40" arrival="186.90" arrivalLane="e0_1" arrivalPos="4800.00" arrivalSpeed="32.29" duration="158.90" routeLength="4947.56" waitingTime="0.00" waitingCount="0" stopTime="0.00" timeLoss="6.43" rerouteNo="0" devices="tripinfo_CAVToC.14 routing_CAVToC.14 ssm_CAVToC.14 toc_CAVToC.14 driverstateCAVToC.14" vType="vehLVOS422" speedFactor="0.90" vaporized=""/>
    <tripinfo id="LV.2" depart="14.70" departLane="entry_1" departPos="42.72" departSpeed="28.65" departDelay="0.10" arrival="188.20" arrivalLane="e0_0" arrivalPos="4800.00" arrivalSpeed="28.60" duration="173.50" routeLength="4957.28" waitingTime="0.00" waitingCount="0" stopTime="0.00" timeLoss="0.42" rerouteNo="0" devices="tripinfo_LV.2 routing_LV.2 ssm_LV.2" vType="vehLVOS14" speedFactor="0.79" vaporized=""/>
    <tripinfo id="LV.6" depart="30.20" departLane="entry_1" departPos="6.13" departSpeed="36.01" departDelay="0.80" arrival="189.10" arrivalLane="e0_1" arrivalPos="4800.00" arrivalSpeed="35.97" duration="158.90" routeLength="4993.87" waitingTime="0.00" waitingCount="0" stopTime="0.00" timeLoss="20.19" rerouteNo="0" devices="tripinfo_LV.6 routing_LV.6 ssm_LV.6" vType="vehLVOS339" speedFactor="1.00" vaporized=""/>
    <tripinfo id="CAVToC.10" depart="14.60" departLane="entry_0" departPos="0.90" departSpeed="32.31" departDelay="0.50" arrival="189.80" arrivalLane="e0_0" arrivalPos="4800.00" arrivalSpeed="30.92" duration="175.20" routeLength="4999.10" waitingTime="0.00" waitingCount="0" stopTime="0.00" timeLoss="44.36" rerouteNo="0" devices="tripinfo_CAVToC.10 routing_CAVToC.10 ssm_CAVToC.10 toc_CAVToC.10 driverstateCAVToC.10" vType="vehLVOS280" speedFactor="1.06" vaporized=""/>
    <tripinfo id="CVToC.8" depart="33.10" departLane="entry_1" departPos="8.12" departSpeed="35.73" departDelay="0.50" arrival="190.60" arrivalLane="e0_1" arrivalPos="4800.00" arrivalSpeed="35.49" duration="157.50" routeLength="4991.88" waitingTime="0.00" waitingCount="0" stopTime="0.00" timeLoss="49.29" rerouteNo="0" devices="tripinfo_CVToC.8 routing_CVToC.8 ssm_CVToC.8 toc_CVToC.8 driverstateCVToC.8" vType="vehLVOS738" speedFactor="1.28" vaporized=""/>
    <tripinfo id="CAVToC.17" depart="35.40" departLane="entry_1" departPos="13.79" departSpeed="35.25" departDelay="2.60" arrival="192.10" arrivalLane="e0_1" arrivalPos="4800.00" arrivalSpeed="35.83" duration="156.70" routeLength="4986.21" waitingTime="0.00" waitingCount="0" stopTime="0.00" timeLoss="17.56" rerouteNo="0" devices="tripinfo_CAVToC.17 routing_CAVToC.17 ssm_CAVToC.17 toc_CAVToC.17 driverstateCAVToC.17" vType="vehLVOS298" speedFactor="0.99" vaporized=""/>
    <tripinfo id="CVToC.6" depart="17.30" departLane="entry_0" departPos="0.10" departSpeed="26.90" departDelay="0.00" arrival="192.30" arrivalLane="e0_0" arrivalPos="4800.00" arrivalSpeed="34.45" duration="175.00" routeLength="4999.90" waitingTime="0.00" waitingCount="0" stopTime="0.00" timeLoss="32.68" rerouteNo="0" devices="tripinfo_CVToC.6 routing_CVToC.6 ssm_CVToC.6 toc_CVToC.6 driverstateCVToC.6" vType="vehLVOS52" speedFactor="0.97" vaporized=""/>
    <tripinfo id="CAVToC.16" depart="32.40" departLane="entry_0" departPos="51.58" departSpeed="30.21" departDelay="0.10" arrival="193.30" arrivalLane="e0_1" arrivalPos="4800.00" arrivalSpeed="34.63" duration="160.90" routeLength="4948.42" waitingTime="0.00" waitingCount="0" stopTime="0.00" timeLoss="17.98" rerouteNo="0" devices="tripinfo_CAVToC.16 routing_CAVToC.16 ssm_CAVToC.16 toc_CAVToC.16 driverstateCAVToC.16" vType="vehLVOS853" speedFactor="0.96" vaporized=""/>
    <tripinfo id="CAVToC.13" depart="24.80" departLane="entry_1" departPos="30.18" departSpeed="29.31" departDelay="1.00" arrival="194.50" arrivalLane="e0_0" arrivalPos="4800.00" arrivalSpeed="29.29" duration="169.70" routeLength="4969.82" waitingTime="0.00" waitingCount="0" stopTime="0.00" timeLoss="0.08" rerouteNo="0" devices="tripinfo_CAVToC.13 routing_CAVToC.13 ssm_CAVToC.13 toc_CAVToC.13 driverstateCAVToC.13" vType="vehLVOS123" speedFactor="0.81" vaporized=""/>
    <tripinfo id="CAVToC.21" depart="41.90" departLane="entry_1" departPos="65.97" departSpeed="29.37" departDelay="1.90" arrival="195.30" arrivalLane="e0_1" arrivalPos="4800.00" arrivalSpeed="37.07" duration="153.40" routeLength="4934.03" waitingTime="0.00" waitingCount="0" stopTime="0.00" timeLoss="24.16" rerouteNo="0" devices="tripinfo_CAVToC.21 routing_CAVToC.21 ssm_CAVToC.21 toc_CAVToC.21 driverstateCAVToC.21" vType="vehLVOS951" speedFactor="1.06" vaporized=""/>
    <tripinfo id="LV.7" depart="46.60" departLane="entry_1" departPos="0.41" departSpeed="41.47" departDelay="4.40" arrival="196.10" arrivalLane="e0_1" arrivalPos="4800.00" arrivalSpeed="37.37" duration="149.50" routeLength="4999.59" waitingTime="0.00" waitingCount="0" stopTime="0.00" timeLoss="28.90" rerouteNo="0" devices="tripinfo_LV.7 routing_LV.7 ssm_LV.7" vType="vehLVOS481" speedFactor="1.15" vaporized=""/>
    <tripinfo id="CAVToC.15" depart="28.40" departLane="entry_0" departPos="8.65" departSpeed="31.86" departDelay="0.30" arrival="196.40" arrivalLane="e0_0" arrivalPos="4800.00" arrivalSpeed="30.89" duration="168.00" routeLength="4991.35" waitingTime="0.00" waitingCount="0" stopTime="0.00" timeLoss="11.31" rerouteNo="0" devices="tripinfo_CAVToC.15 routing_CAVToC.15 ssm_CAVToC.15 toc_CAVToC.15 driverstateCAVToC.15" vType="vehLVOS452" speedFactor="0.88" vaporized=""/>
    <tripinfo id="CVToC.11" depart="42.60" departLane="entry_1" departPos="7.73" departSpeed="30.25" departDelay="1.10" arrival="198.20" arrivalLane="e0_0" arrivalPos="4800.00" arrivalSpeed="32.07" duration="155.60" routeLength="4992.27" waitingTime="0.00" waitingCount="0" stopTime="0.00" timeLoss="23.89" rerouteNo="0" devices="tripinfo_CVToC.11 routing_CVToC.11 ssm_CVToC.11 toc_CVToC.11 driverstateCVToC.11" vType="vehLVOS781" speedFactor="1.05" vaporized=""/>
    <tripinfo id="CVToC.15" depart="50.70" departLane="entry_1" departPos="9.33" departSpeed="32.80" departDelay="1.10" arrival="199.50" arrivalLane="e0_1" arrivalPos="4800.00" arrivalSpeed="37.61" duration="148.80" routeLength="4990.67" waitingTime="0.00" waitingCount="0" stopTime="0.00" timeLoss="16.18" rerouteNo="0" devices="tripinfo_CVToC.15 routing_CVToC.15 ssm_CVToC.15 toc_CVToC.15 driverstateCVToC.15" vType="vehLVOS217" speedFactor="1.04" vaporized=""/>
    <tripinfo id="LV.8" depart="48.20" departLane="entry_1" departPos="12.64" departSpeed="32.88" departDelay="0.10" arrival="202.90" arrivalLane="e0_0" arrivalPos="4800.00" arrivalSpeed="32.82" duration="154.70" routeLength="4987.36" waitingTime="0.00" waitingCount="0" stopTime="0.00" timeLoss="2.93" rerouteNo="0" devices="tripinfo_LV.8 routing_LV.8 ssm_LV.8" vType="vehLVOS256" speedFactor="0.91" vaporized=""/>
    <tripinfo id="CAVToC.24" depart="52.90" departLane="entry_1" departPos="6.08" departSpeed="32.69" departDelay="3.10" arrival="206.00" arrivalLane="e0_0" arrivalPos="4800.00" arrivalSpeed="33.57" duration="153.10" routeLength="4993.92" waitingTime="0.00" waitingCount="0" stopTime="0.00" timeLoss="4.46" rerouteNo="0" devices="tripinfo_CAVToC.24 routing_CAVToC.24 ssm_CAVToC.24 toc_CAVToC.24 driverstateCAVToC.24" vType="vehLVOS122" speedFactor="0.93" vaporized=""/>
    <tripinfo id="CAVToC.22" depart="47.60" departLane="entry_0" departPos="36.49" departSpeed="28.27" departDelay="0.90" arrival="207.70" arrivalLane="e0_1" arrivalPos="4800.00" arrivalSpeed="36.77" duration="160.10" routeLength="4963.51" waitingTime="0.00" waitingCount="0" stopTime="0.00" timeLoss="29.32" rerouteNo="0" devices="tripinfo_CAVToC.22 routing_CAVToC.22 ssm_CAVToC.22 toc_CAVToC.22 driverstateCAVToC.22" vType="vehLVOS699" speedFactor="1.05" vaporized=""/>
    <tripinfo id="CAVToC.25" depart="55.80" departLane="entry_1" departPos="19.78" departSpeed="32.80" departDelay="5.50" arrival="208.60" arrivalLane="e0_0" arrivalPos="4800.00" arrivalSpeed="37.25" duration="152.80" routeLength="4980.22" waitingTime="0.00" waitingCount="0" stopTime="0.00" timeLoss="19.19" rerouteNo="0" devices="tripinfo_CAVToC.25 routing_CAVToC.25 ssm_CAVToC.25 toc_CAVToC.25 driverstateCAVToC.25" vType="vehLVOS489" speedFactor="1.03" vaporized=""/>
    <tripinfo id="CAVToC.26" depart="60.40" departLane="entry_1" departPos="14.74" departSpeed="33.03" departDelay="8.70" arrival="209.80" arrivalLane="e0_1" arrivalPos="4800.00" arrivalSpeed="38.95" duration="149.40" routeLength="4985.26" waitingTime="0.00" waitingCount="0" stopTime="0.00" timeLoss="21.90" rerouteNo="0" devices="tripinfo_CAVToC.26 routing_CAVToC.26 ssm_CAVToC.26 toc_CAVToC.26 driverstateCAVToC.26" vType="vehLVOS114" speedFactor="1.08" vaporized=""/>
    <tripinfo id="CAVToC.19" depart="37.00" departLane="entry_1" departPos="13.15" departSpeed="28.23" departDelay="0.80" arrival="214.30" arrivalLane="e0_0" arrivalPos="4800.00" arrivalSpeed="28.22" duration="177.30" routeLength="4986.85" waitingTime="0.00" waitingCount="0" stopTime="0.00" timeLoss="0.60" rerouteNo="0" devices="tripinfo_CAVToC.19 routing_CAVToC.19 ssm_CAVToC.19 toc_CAVToC.19 driverstateCAVToC.19" vType="vehLVOS565" speedFactor="0.78" vaporized=""/>
    <tripinfo id="CAVToC.18" depart="33.90" departLane="entry_0" departPos="10.63" departSpeed="31.23" departDelay="0.70" arrival="215.30" arrivalLane="e0_0" arrivalPos="4800.00" arrivalSpeed="29.15" duration="181.40" routeLength="4989.37" waitingTime="0.00" waitingCount="0" stopTime="0.00" timeLoss="57.65" rerouteNo="0" devices="tripinfo_CAVToC.18 routing_CAVToC.18 ssm_CAVToC.18 toc_CAVToC.18 driverstateCAVToC.18" vType="vehLVOS996" speedFactor="1.12" vaporized=""/>
    <tripinfo id="CAVToC.27" depart="57.80" departLane="entry_1" departPos="12.26" departSpeed="32.63" departDelay="5.10" arrival="215.90" arrivalLane="e0_1" arrivalPos="4800.00" arrivalSpeed="32.77" duration="158.10" routeLength="4987.74" waitingTime="0.00" waitingCount="0" stopTime="0.00" timeLoss="6.11" rerouteNo="0" devices="tripinfo_CAVToC.27 routing_CAVToC.27 ssm_CAVToC.27 toc_CAVToC.27 driverstateCAVToC.27" vType="vehLVOS181" speedFactor="0.91" vaporized=""/>
    <tripinfo id="CVToC.9" depart="36.50" departLane="entry_0" departPos="13.30" departSpeed="31.49" departDelay="1.70" arrival="216.70" arrivalLane="e0_0" arrivalPos="4800.00" arrivalSpeed="31.14" duration="180.20" routeLength="4986.70" waitingTime="0.00" waitingCount="0" stopTime="0.00" timeLoss="36.91" rerouteNo="0" devices="tripinfo_CVToC.9 routing_CVToC.9 ssm_CVToC.9 toc_CVToC.9 driverstateCVToC.9" vType="vehLVOS844" speedFactor="0.96" vaporized=""/>
    <tripinfo id="CVToC.19" depart="62.30" departLane="entry_1" departPos="8.40" departSpeed="32.74" departDelay="2.80" arrival="218.70" arrivalLane="e0_1" arrivalPos="4800.00" arrivalSpeed="32.72" duration="156.40" routeLength="4991.60" waitingTime="0.00" waitingCount="0" stopTime="0.00" timeLoss="3.91" rerouteNo="0" devices="tripinfo_CVToC.19 routing_CVToC.19 ssm_CVToC.19 toc_CVToC.19 driverstateCVToC.19" vType="vehLVOS846" speedFactor="0.91" vaporized=""/>
    <tripinfo id="CVToC.10" depart="39.40" departLane="entry_0" departPos="24.64" departSpeed="31.24" departDelay="0.20" arrival="219.70" arrivalLane="e0_0" arrivalPos="4800.00" arrivalSpeed="32.97" duration="180.30" routeLength="4975.36" waitingTime="0.00" waitingCount="0" stopTime="0.00" timeLoss="44.84" rerouteNo="0" devices="tripinfo_CVToC.10 routing_CVToC.10 ssm_CVToC.10 toc_CVToC.10 driverstateCVToC.10" vType="vehLVOS837" speedFactor="1.02" vaporized=""/>
    <tripinfo id="CVToC.13" depart="54.70" departLane="entry_0" departPos="4.97" departSpeed="29.20" departDelay="8.60" arrival="219.80" arrivalLane="e0_1" arrivalPos="4800.00" arrivalSpeed="35.14" duration="165.10" routeLength="4995.03" waitingTime="0.00" waitingCount="0" stopTime="0.00" timeLoss="38.18" rerouteNo="0" devices="tripinfo_CVToC.13 routing_CVToC.13 ssm_CVToC.13 toc_CVToC.13 driverstateCVToC.13" vType="vehLVOS78" speedFactor="1.09" vaporized=""/>
    <tripinfo id="CAVToC.20" depart="41.60" departLane="entry_0" departPos="18.74" departSpeed="27.57" departDelay="2.00" arrival="221.10" arrivalLane="e0_0" arrivalPos="4800.00" arrivalSpeed="32.44" duration="179.50" routeLength="4981.26" waitingTime="0.00" waitingCount="0" stopTime="0.00" timeLoss="26.24" rerouteNo="0" devices="tripinfo_CAVToC.20 routing_CAVToC.20 ssm_CAVToC.20 toc_CAVToC.20 driverstateCAVToC.20" vType="vehLVOS267" speedFactor="0.90" vaporized=""/>
    <tripinfo id="CVToC.12" depart="47.50" departLane="entry_0" departPos="115.53" departSpeed="27.09" departDelay="2.30" arrival="222.30" arrivalLane="e0_0" arrivalPos="4800.00" arrivalSpeed="28.85" duration="174.80" routeLength="4884.47" waitingTime="0.00" waitingCount="0" stopTime="0.00" timeLoss="5.45" rerouteNo="0" devices="tripinfo_CVToC.12 routing_CVToC.12 ssm_CVToC.12 toc_CVToC.12 driverstateCVToC.12" vType="vehLVOS857" speedFactor="0.80" vaporized=""/>
    <tripinfo id="CAVToC.30" depart="65.20" departLane="entry_1" departPos="4.99" departSpeed="29.18" departDelay="0.50" arrival="222.40" arrivalLane="e0_1" arrivalPos="4800.00" arrivalSpeed="37.22" duration="157.20" routeLength="4995.01" waitingTime="0.00" waitingCount="0" stopTime="0.00" timeLoss="22.98" rerouteNo="0" devices="tripinfo_CAVToC.30 routing_CAVToC.30 ssm_CAVToC.30 toc_CAVToC.30 driverstateCAVToC.30" vType="vehLVOS28" speedFactor="1.03" vaporized=""/>
    <tripinfo id="LV.12" depart="70.50" departLane="entry_1" departPos="28.00" departSpeed="37.03" departDelay="5.40" arrival="223.10" arrivalLane="e0_1" arrivalPos="4800.00" arrivalSpeed="36.95" duration="152.60" routeLength="4972.00" waitingTime="0.00" waitingCount="0" stopTime="0.00" timeLoss="18.33" rerouteNo="0" devices="tripinfo_LV.12 routing_LV.12 ssm_LV.12" vType="vehLVOS488" speedFactor="1.03" vaporized=""/>
    <tripinfo id="CAVToC.23" depart="49.80" departLane="entry_0" departPos="24.91" departSpeed="28.46" departDelay="2.10" arrival="223.30" arrivalLane="e0_0" arrivalPos="4800.00" arrivalSpeed="30.30" duration="173.50" routeLength="4975.09" waitingTime="0.00" waitingCount="0" stopTime="0.00" timeLoss="25.44" rerouteNo="0" devices="tripinfo_CAVToC.23 routing_CAVToC.23 ssm_CAVToC.23 toc_CAVToC.23 driverstateCAVToC.23" vType="vehLVOS252" speedFactor="0.93" vaporized=""/>
    <tripinfo id="CVToC.14" depart="52.00" departLane="entry_0" departPos="15.89" departSpeed="28.59" departDelay="2.50" arrival="225.10" arrivalLane="e0_0" arrivalPos="4800.00" arrivalSpeed="33.21" duration="173.10" routeLength="4984.11" waitingTime="0.00" waitingCount="0" stopTime="0.00" timeLoss="25.69" rerouteNo="0" devices="tripinfo_CVToC.14 routing_CVToC.14 ssm_CVToC.14 toc_CVToC.14 driverstateCVToC.14" vType="vehLVOS966" speedFactor="0.94" vaporized=""/>
    <tripinfo id="CAVToC.29" depart="72.60" departLane="entry_1" departPos="19.26" departSpeed="36.21" departDelay="8.90" arrival="225.70" arrivalLane="e0_1" arrivalPos="4800.00" arrivalSpeed="40.74" duration="153.10" routeLength="4980.74" waitingTime="0.00" waitingCount="0" stopTime="0.00" timeLoss="31.27" rerouteNo="0" devices="tripinfo_CAVToC.29 routing_CAVToC.29 ssm_CAVToC.29 toc_CAVToC.29 driverstateCAVToC.29" vType="vehLVOS440" speedFactor="1.13" vaporized=""/>
    <tripinfo id="LV.11" depart="68.00" departLane="entry_1" departPos="4.71" departSpeed="34.05" departDelay="4.50" arrival="226.10" arrivalLane="e0_0" arrivalPos="4800.00" arrivalSpeed="33.41" duration="158.10" routeLength="4995.29" waitingTime="0.00" waitingCount="0" stopTime="0.00" timeLoss="11.41" rerouteNo="0" devices="tripinfo_LV.11 routing_LV.11 ssm_LV.11" vType="vehLVOS311" speedFactor="0.94" vaporized=""/>
    <tripinfo id="CVToC.21" depart="74.80" departLane="entry_1" departPos="8.16" departSpeed="32.64" departDelay="9.90" arrival="227.40" arrivalLane="e0_1" arrivalPos="4800.00" arrivalSpeed="37.61" duration="152.60" routeLength="4991.84" waitingTime="0.00" waitingCount="0" stopTime="0.00" timeLoss="20.01" rerouteNo="0" devices="tripinfo_CVToC.21 routing_CVToC.21 ssm_CVToC.21 toc_CVToC.21 driverstateCVToC.21" vType="vehLVOS5" speedFactor="1.04" vaporized=""/>
    <tripinfo id="CVToC.24" depart="77.10" departLane="entry_1" departPos="10.07" departSpeed="32.86" departDelay="6.20" arrival="232.10" arrivalLane="e0_1" arrivalPos="4800.00" arrivalSpeed="34.78" duration="155.00" routeLength="4989.93" waitingTime="0.00" waitingCount="0" stopTime="0.00" timeLoss="11.59" rerouteNo="0" devices="tripinfo_CVToC.24 routing_CVToC.24 ssm_CVToC.24 toc_CVToC.24 driverstateCVToC.24" vType="vehLVOS540" speedFactor="0.96" vaporized=""/>
    <tripinfo id="LV.13" depart="73.60" departLane="entry_1" departPos="47.75" departSpeed="32.02" departDelay="6.30" arrival="232.70" arrivalLane="e0_0" arrivalPos="4800.00" arrivalSpeed="32.00" duration="159.10" routeLength="4952.25" waitingTime="0.00" waitingCount="0" stopTime="0.00" timeLoss="4.37" rerouteNo="0" devices="tripinfo_LV.13 routing_LV.13 ssm_LV.13" vType="vehLVOS977" speedFactor="0.89" vaporized=""/>
    <tripinfo id="LV.17" depart="79.20" departLane="entry_1" departPos="28.99" departSpeed="33.54" departDelay="4.40" arrival="235.50" arrivalLane="e0_1" arrivalPos="4800.00" arrivalSpeed="33.48" duration="156.30" routeLength="4971.01" waitingTime="0.00" waitingCount="0" stopTime="0.00" timeLoss="8.09" rerouteNo="0" devices="tripinfo_LV.17 routing_LV.17 ssm_LV.17" vType="vehLVOS518" speedFactor="0.93" vaporized=""/>
    <tripinfo id="LV.15" depart="82.00" departLane="entry_1" departPos="28.53" departSpeed="37.06" departDelay="11.50" arrival="236.70" arrivalLane="e0_1" arrivalPos="4800.00" arrivalSpeed="37.05" duration="154.70" routeLength="4971.47" waitingTime="0.00" waitingCount="0" stopTime="0.00" timeLoss="20.52" rerouteNo="0" devices="tripinfo_LV.15 routing_LV.15 ssm_LV.15" vType="vehLVOS248" speedFactor="1.03" vaporized=""/>