<?xml version="1.0" encoding="UTF-8"?>

<!-- generated on 09/23/20 07:45:05 by Eclipse SUMO Version 1.6.0
<configuration xmlns:xsi="http://www.w3.org/2001/XMLSchema-instance" xsi:noNamespaceSchemaLocation="http://sumo.dlr.de/xsd/sumoConfiguration.xsd">

    <input>
        <net-file value="scenario/UC5_1.net.xml"/>
        <route-files value="scenario/routes_trafficMix_0_trafficDemand_1_driverBehaviour_OS_seed_0.xml"/>
        <additional-files value="scenario/additionalsOutput_trafficMix_0_trafficDemand_1_driverBehaviour_OS_seed_0.xml,scenario/vTypesCAVToC_OS.add.xml,scenario/vTypesCVToC_OS.add.xml,scenario/vTypesLV_OS.add.xml,scenario/shapes.add.xml,scenario/view.add.xml"/>
    </input>

    <output>
        <tripinfo-output value="C:\Users\laborknecht\Aris\workspace\ma-branch\tor-distribution/outputs/simulations/DQN__2020-09-22_13-29-46__20200923-071300/tripinfo_4.xml"/>
    </output>

    <time>
        <step-length value="0.1"/>
    </time>

    <processing>
        <step-method.ballistic value="true"/>
        <ignore-route-errors value="true"/>
        <lanechange.duration value="2.5"/>
    </processing>

    <report>
        <no-step-log value="true"/>
    </report>

    <toc_device>
        <device.toc.ogNewTimeHeadway value="100"/>
        <device.toc.ogNewSpaceHeadway value="5"/>
        <device.toc.ogMaxDecel value="1"/>
        <device.toc.ogChangeRate value="1"/>
    </toc_device>

    <traci_server>
        <remote-port value="50529"/>
    </traci_server>

    <random_number>
        <seed value="1028"/>
    </random_number>

    <gui_only>
        <tracker-interval value="0.1"/>
    </gui_only>

</configuration>
-->

<tripinfos xmlns:xsi="http://www.w3.org/2001/XMLSchema-instance" xsi:noNamespaceSchemaLocation="http://sumo.dlr.de/xsd/tripinfo_file.xsd">
    <tripinfo id="CAVToC.0" depart="0.20" departLane="entry_1" departPos="199.90" departSpeed="28.35" departDelay="0.00" arrival="169.70" arrivalLane="e0_1" arrivalPos="4800.00" arrivalSpeed="28.32" duration="169.50" routeLength="4800.10" waitingTime="0.00" waitingCount="0" stopTime="0.00" timeLoss="0.13" rerouteNo="0" devices="tripinfo_CAVToC.0 routing_CAVToC.0 ssm_CAVToC.0 toc_CAVToC.0 driverstateCAVToC.0" vType="vehLVOS604" speedFactor="0.79" vaporized=""/>
    <tripinfo id="CVToC.0" depart="2.30" departLane="entry_1" departPos="182.66" departSpeed="29.18" departDelay="0.00" arrival="171.20" arrivalLane="e0_1" arrivalPos="4800.00" arrivalSpeed="31.72" duration="168.90" routeLength="4817.34" waitingTime="0.00" waitingCount="0" stopTime="0.00" timeLoss="33.73" rerouteNo="0" devices="tripinfo_CVToC.0 routing_CVToC.0 ssm_CVToC.0 toc_CVToC.0 driverstateCVToC.0" vType="vehLVOS424" speedFactor="0.99" vaporized=""/>
    <tripinfo id="CAVToC.1" depart="3.30" departLane="entry_0" departPos="199.90" departSpeed="35.90" departDelay="0.00" arrival="171.20" arrivalLane="e0_0" arrivalPos="4800.00" arrivalSpeed="30.82" duration="167.90" routeLength="4800.10" waitingTime="0.00" waitingCount="0" stopTime="0.00" timeLoss="34.20" rerouteNo="0" devices="tripinfo_CAVToC.1 routing_CAVToC.1 ssm_CAVToC.1 toc_CAVToC.1 driverstateCAVToC.1" vType="vehLVOS753" speedFactor="0.99" vaporized=""/>
    <tripinfo id="CVToC.2" depart="4.10" departLane="entry_0" departPos="165.29" departSpeed="30.10" departDelay="0.00" arrival="173.10" arrivalLane="e0_0" arrivalPos="4800.00" arrivalSpeed="30.09" duration="169.00" routeLength="4834.71" waitingTime="0.00" waitingCount="0" stopTime="0.00" timeLoss="8.35" rerouteNo="0" devices="tripinfo_CVToC.2 routing_CVToC.2 ssm_CVToC.2 toc_CVToC.2 driverstateCVToC.2" vType="vehLVOS819" speedFactor="0.83" vaporized=""/>
    <tripinfo id="CVToC.1" depart="3.00" departLane="entry_1" departPos="127.75" departSpeed="29.79" departDelay="0.00" arrival="173.50" arrivalLane="e0_1" arrivalPos="4800.00" arrivalSpeed="34.15" duration="170.50" routeLength="4872.25" waitingTime="0.00" waitingCount="0" stopTime="0.00" timeLoss="30.23" rerouteNo="0" devices="tripinfo_CVToC.1 routing_CVToC.1 ssm_CVToC.1 toc_CVToC.1 driverstateCVToC.1" vType="vehLVOS230" speedFactor="0.96" vaporized=""/>
    <tripinfo id="CAVToC.2" depart="3.40" departLane="entry_1" departPos="75.20" departSpeed="29.93" departDelay="0.00" arrival="175.10" arrivalLane="e0_1" arrivalPos="4800.00" arrivalSpeed="30.46" duration="171.70" routeLength="4924.80" waitingTime="0.00" waitingCount="0" stopTime="0.00" timeLoss="10.20" rerouteNo="0" devices="tripinfo_CAVToC.2 routing_CAVToC.2 ssm_CAVToC.2 toc_CAVToC.2 driverstateCAVToC.2" vType="vehLVOS461" speedFactor="0.84" vaporized=""/>
    <tripinfo id="CVToC.3" depart="4.50" departLane="entry_0" departPos="104.39" departSpeed="30.56" departDelay="0.00" arrival="175.90" arrivalLane="e0_0" arrivalPos="4800.00" arrivalSpeed="31.79" duration="171.40" routeLength="4895.61" waitingTime="0.00" waitingCount="0" stopTime="0.00" timeLoss="32.38" rerouteNo="0" devices="tripinfo_CVToC.3 routing_CVToC.3 ssm_CVToC.3 toc_CVToC.3 driverstateCVToC.3" vType="vehLVOS162" speedFactor="0.98" vaporized=""/>
    <tripinfo id="LV.1" depart="5.90" departLane="entry_1" departPos="30.29" departSpeed="37.34" departDelay="0.00" arrival="176.40" arrivalLane="e0_1" arrivalPos="4800.00" arrivalSpeed="33.36" duration="170.50" routeLength="4969.71" waitingTime="0.00" waitingCount="0" stopTime="0.00" timeLoss="37.38" rerouteNo="0" devices="tripinfo_LV.1 routing_LV.1 ssm_LV.1" vType="vehLVOS936" speedFactor="1.03" vaporized=""/>
    <tripinfo id="LV.0" depart="5.70" departLane="entry_0" departPos="73.24" departSpeed="35.18" departDelay="0.00" arrival="176.80" arrivalLane="e0_0" arrivalPos="4800.00" arrivalSpeed="32.59" duration="171.10" routeLength="4926.76" waitingTime="0.00" waitingCount="0" stopTime="0.00" timeLoss="31.03" rerouteNo="0" devices="tripinfo_LV.0 routing_LV.0 ssm_LV.0" vType="vehLVOS40" speedFactor="0.97" vaporized=""/>
    <tripinfo id="CVToC.5" depart="7.60" departLane="entry_1" departPos="29.58" departSpeed="29.24" departDelay="0.00" arrival="178.20" arrivalLane="e0_1" arrivalPos="4800.00" arrivalSpeed="29.22" duration="170.60" routeLength="4970.42" waitingTime="0.00" waitingCount="0" stopTime="0.00" timeLoss="0.54" rerouteNo="0" devices="tripinfo_CVToC.5 routing_CVToC.5 ssm_CVToC.5 toc_CVToC.5 driverstateCVToC.5" vType="vehLVOS424" speedFactor="0.81" vaporized=""/>
    <tripinfo id="CVToC.7" depart="9.60" departLane="entry_1" departPos="3.16" departSpeed="30.25" departDelay="0.60" arrival="179.10" arrivalLane="e0_1" arrivalPos="4800.00" arrivalSpeed="30.46" duration="169.50" routeLength="4996.84" waitingTime="0.00" waitingCount="0" stopTime="0.00" timeLoss="37.97" rerouteNo="0" devices="tripinfo_CVToC.7 routing_CVToC.7 ssm_CVToC.7 toc_CVToC.7 driverstateCVToC.7" vType="vehLVOS69" speedFactor="1.05" vaporized=""/>
    <tripinfo id="CVToC.4" depart="6.80" departLane="entry_0" departPos="39.45" departSpeed="34.61" departDelay="0.20" arrival="179.20" arrivalLane="e0_0" arrivalPos="4800.00" arrivalSpeed="30.60" duration="172.40" routeLength="4960.55" waitingTime="0.00" waitingCount="0" stopTime="0.00" timeLoss="29.74" rerouteNo="0" devices="tripinfo_CVToC.4 routing_CVToC.4 ssm_CVToC.4 toc_CVToC.4 driverstateCVToC.4" vType="vehLVOS821" speedFactor="0.96" vaporized=""/>
    <tripinfo id="CAVToC.5" depart="12.50" departLane="entry_1" departPos="3.38" departSpeed="31.08" departDelay="0.60" arrival="181.70" arrivalLane="e0_1" arrivalPos="4800.00" arrivalSpeed="33.99" duration="169.20" routeLength="4996.62" waitingTime="0.00" waitingCount="0" stopTime="0.00" timeLoss="40.18" rerouteNo="0" devices="tripinfo_CAVToC.5 routing_CAVToC.5 ssm_CAVToC.5 toc_CAVToC.5 driverstateCAVToC.5" vType="vehLVOS82" speedFactor="1.07" vaporized=""/>
    <tripinfo id="LV.2" depart="13.80" departLane="entry_0" departPos="2.89" departSpeed="34.54" departDelay="1.20" arrival="182.70" arrivalLane="e0_1" arrivalPos="4800.00" arrivalSpeed="34.41" duration="168.90" routeLength="4997.11" waitingTime="0.00" waitingCount="0" stopTime="0.00" timeLoss="24.16" rerouteNo="0" devices="tripinfo_LV.2 routing_LV.2 ssm_LV.2" vType="vehLVOS870" speedFactor="0.96" vaporized=""/>
    <tripinfo id="CAVToC.3" depart="8.20" departLane="entry_0" departPos="6.43" departSpeed="34.52" departDelay="0.10" arrival="182.80" arrivalLane="e0_0" arrivalPos="4800.00" arrivalSpeed="34.29" duration="174.60" routeLength="4993.57" waitingTime="0.00" waitingCount="0" stopTime="0.00" timeLoss="39.30" rerouteNo="0" devices="tripinfo_CAVToC.3 routing_CAVToC.3 ssm_CAVToC.3 toc_CAVToC.3 driverstateCAVToC.3" vType="vehLVOS832" speedFactor="1.02" vaporized=""/>
    <tripinfo id="CVToC.8" depart="15.20" departLane="entry_1" departPos="6.75" departSpeed="31.57" departDelay="5.60" arrival="183.90" arrivalLane="e0_1" arrivalPos="4800.00" arrivalSpeed="35.06" duration="168.70" routeLength="4993.25" waitingTime="0.00" waitingCount="0" stopTime="0.00" timeLoss="32.81" rerouteNo="0" devices="tripinfo_CVToC.8 routing_CVToC.8 ssm_CVToC.8 toc_CVToC.8 driverstateCVToC.8" vType="vehLVOS813" speedFactor="1.02" vaporized=""/>
    <tripinfo id="CAVToC.4" depart="10.60" departLane="entry_0" departPos="1.34" departSpeed="28.42" departDelay="1.50" arrival="184.70" arrivalLane="e0_0" arrivalPos="4800.00" arrivalSpeed="35.07" duration="174.10" routeLength="4998.66" waitingTime="0.00" waitingCount="0" stopTime="0.00" timeLoss="31.51" rerouteNo="0" devices="tripinfo_CAVToC.4 routing_CAVToC.4 ssm_CAVToC.4 toc_CAVToC.4 driverstateCAVToC.4" vType="vehLVOS225" speedFactor="0.97" vaporized=""/>
    <tripinfo id="LV.3" depart="20.40" departLane="entry_1" departPos="1.89" departSpeed="42.58" departDelay="4.50" arrival="185.40" arrivalLane="e0_1" arrivalPos="4800.00" arrivalSpeed="36.77" duration="165.00" routeLength="4998.11" waitingTime="0.00" waitingCount="0" stopTime="0.00" timeLoss="47.59" rerouteNo="0" devices="tripinfo_LV.3 routing_LV.3 ssm_LV.3" vType="vehLVOS55" speedFactor="1.18" vaporized=""/>
    <tripinfo id="CVToC.6" depart="16.50" departLane="entry_0" departPos="2.07" departSpeed="32.70" departDelay="8.60" arrival="186.60" arrivalLane="e0_0" arrivalPos="4800.00" arrivalSpeed="36.43" duration="170.10" routeLength="4997.93" waitingTime="0.00" waitingCount="0" stopTime="0.00" timeLoss="48.32" rerouteNo="0" devices="tripinfo_CVToC.6 routing_CVToC.6 ssm_CVToC.6 toc_CVToC.6 driverstateCVToC.6" vType="vehLVOS879" speedFactor="1.14" vaporized=""/>
    <tripinfo id="CVToC.9" depart="19.80" departLane="entry_0" departPos="24.27" departSpeed="29.12" departDelay="1.20" arrival="186.80" arrivalLane="e0_1" arrivalPos="4800.00" arrivalSpeed="33.94" duration="167.00" routeLength="4975.73" waitingTime="0.00" waitingCount="0" stopTime="0.00" timeLoss="23.36" rerouteNo="0" devices="tripinfo_CVToC.9 routing_CVToC.9 ssm_CVToC.9 toc_CVToC.9 driverstateCVToC.9" vType="vehLVOS41" speedFactor="0.96" vaporized=""/>
    <tripinfo id="CAVToC.6" depart="22.40" departLane="entry_1" departPos="1.16" departSpeed="36.57" departDelay="2.10" arrival="188.00" arrivalLane="e0_1" arrivalPos="4800.00" arrivalSpeed="34.15" duration="165.60" routeLength="4998.84" waitingTime="0.00" waitingCount="0" stopTime="0.00" timeLoss="39.53" rerouteNo="0" devices="tripinfo_CAVToC.6 routing_CAVToC.6 ssm_CAVToC.6 toc_CAVToC.6 driverstateCAVToC.6" vType="vehLVOS250" speedFactor="1.10" vaporized=""/>
    <tripinfo id="CAVToC.7" depart="23.50" departLane="entry_0" departPos="54.28" departSpeed="29.11" departDelay="0.00" arrival="189.60" arrivalLane="e0_0" arrivalPos="4800.00" arrivalSpeed="35.87" duration="166.10" routeLength="4945.72" waitingTime="0.00" waitingCount="0" stopTime="0.00" timeLoss="28.40" rerouteNo="0" devices="tripinfo_CAVToC.7 routing_CAVToC.7 ssm_CAVToC.7 toc_CAVToC.7 driverstateCAVToC.7" vType="vehLVOS121" speedFactor="0.99" vaporized=""/>
    <tripinfo id="CAVToC.9" depart="27.20" departLane="entry_1" departPos="13.40" departSpeed="30.13" departDelay="0.20" arrival="193.80" arrivalLane="e0_1" arrivalPos="4800.00" arrivalSpeed="34.97" duration="166.60" routeLength="4986.60" waitingTime="0.00" waitingCount="0" stopTime="0.00" timeLoss="24.31" rerouteNo="0" devices="tripinfo_CAVToC.9 routing_CAVToC.9 ssm_CAVToC.9 toc_CAVToC.9 driverstateCAVToC.9" vType="vehLVOS159" speedFactor="0.97" vaporized=""/>
    <tripinfo id="CAVToC.8" depart="24.20" departLane="entry_1" departPos="3.02" departSpeed="29.45" departDelay="0.30" arrival="194.00" arrivalLane="e0_0" arrivalPos="4800.00" arrivalSpeed="29.38" duration="169.80" routeLength="4996.98" waitingTime="0.00" waitingCount="0" stopTime="0.00" timeLoss="0.14" rerouteNo="0" devices="tripinfo_CAVToC.8 routing_CAVToC.8 ssm_CAVToC.8 toc_CAVToC.8 driverstateCAVToC.8" vType="vehLVOS938" speedFactor="0.82" vaporized=""/>
    <tripinfo id="CAVToC.10" depart="28.10" departLane="entry_0" departPos="45.82" departSpeed="28.89" departDelay="0.60" arrival="196.50" arrivalLane="e0_0" arrivalPos="4800.00" arrivalSpeed="34.73" duration="168.40" routeLength="4954.18" waitingTime="0.00" waitingCount="0" stopTime="0.00" timeLoss="26.04" rerouteNo="0" devices="tripinfo_CAVToC.10 routing_CAVToC.10 ssm_CAVToC.10 toc_CAVToC.10 driverstateCAVToC.10" vType="vehLVOS211" speedFactor="0.96" vaporized=""/>
    <tripinfo id="CVToC.10" depart="25.90" departLane="entry_0" departPos="60.78" departSpeed="28.10" departDelay="0.00" arrival="203.20" arrivalLane="e0_0" arrivalPos="4800.00" arrivalSpeed="28.04" duration="177.30" routeLength="4939.22" waitingTime="0.00" waitingCount="0" stopTime="0.00" timeLoss="1.52" rerouteNo="0" devices="tripinfo_CVToC.10 routing_CVToC.10 ssm_CVToC.10 toc_CVToC.10 driverstateCVToC.10" vType="vehLVOS555" speedFactor="0.78" vaporized=""/>
    <tripinfo id="CAVToC.11" depart="29.20" departLane="entry_1" departPos="13.22" departSpeed="28.00" departDelay="0.00" arrival="207.80" arrivalLane="e0_1" arrivalPos="4800.00" arrivalSpeed="27.99" duration="178.60" routeLength="4986.78" waitingTime="0.00" waitingCount="0" stopTime="0.00" timeLoss="0.43" rerouteNo="0" devices="tripinfo_CAVToC.11 routing_CAVToC.11 ssm_CAVToC.11 toc_CAVToC.11 driverstateCAVToC.11" vType="vehLVOS127" speedFactor="0.78" vaporized=""/>
    <tripinfo id="CVToC.12" depart="31.30" departLane="entry_1" departPos="0.11" departSpeed="28.56" departDelay="2.00" arrival="208.60" arrivalLane="e0_1" arrivalPos="4800.00" arrivalSpeed="29.28" duration="177.30" routeLength="4999.89" waitingTime="0.00" waitingCount="0" stopTime="0.00" timeLoss="23.17" rerouteNo="0" devices="tripinfo_CVToC.12 routing_CVToC.12 ssm_CVToC.12 toc_CVToC.12 driverstateCVToC.12" vType="vehLVOS27" speedFactor="0.90" vaporized=""/>
    <tripinfo id="CVToC.11" depart="29.50" departLane="entry_0" departPos="8.06" departSpeed="29.62" departDelay="0.90" arrival="209.60" arrivalLane="e0_0" arrivalPos="4800.00" arrivalSpeed="30.80" duration="180.10" routeLength="4991.94" waitingTime="0.00" waitingCount="0" stopTime="0.00" timeLoss="40.85" rerouteNo="0" devices="tripinfo_CVToC.11 routing_CVToC.11 ssm_CVToC.11 toc_CVToC.11 driverstateCVToC.11" vType="vehLVOS743" speedFactor="0.99" vaporized=""/>
    <tripinfo id="CVToC.13" depart="34.60" departLane="entry_1" departPos="20.57" departSpeed="29.10" departDelay="3.80" arrival="210.60" arrivalLane="e0_1" arrivalPos="4800.00" arrivalSpeed="32.77" duration="176.00" routeLength="4979.43" waitingTime="0.00" waitingCount="0" stopTime="0.00" timeLoss="31.07" rerouteNo="0" devices="tripinfo_CVToC.13 routing_CVToC.13 ssm_CVToC.13 toc_CVToC.13 driverstateCVToC.13" vType="vehLVOS582" speedFactor="0.95" vaporized=""/>
    <tripinfo id="CVToC.14" depart="32.20" departLane="entry_0" departPos="12.44" departSpeed="26.53" departDelay="0.40" arrival="211.10" arrivalLane="e0_0" arrivalPos="4800.00" arrivalSpeed="31.54" duration="178.90" routeLength="4987.56" waitingTime="0.00" waitingCount="0" stopTime="0.00" timeLoss="30.51" rerouteNo="0" devices="tripinfo_CVToC.14 routing_CVToC.14 ssm_CVToC.14 toc_CVToC.14 driverstateCVToC.14" vType="vehLVOS328" speedFactor="0.93" vaporized=""/>
    <tripinfo id="CVToC.15" depart="37.00" departLane="entry_1" departPos="3.33" departSpeed="30.13" departDelay="4.00" arrival="212.90" arrivalLane="e0_1" arrivalPos="4800.00" arrivalSpeed="35.43" duration="175.90" routeLength="4996.67" waitingTime="0.00" waitingCount="0" stopTime="0.00" timeLoss="49.43" rerouteNo="0" devices="tripinfo_CVToC.15 routing_CVToC.15 ssm_CVToC.15 toc_CVToC.15 driverstateCVToC.15" vType="vehLVOS444" speedFactor="1.09" vaporized=""/>
    <tripinfo id="CAVToC.12" depart="34.90" departLane="entry_0" departPos="1.03" departSpeed="27.25" departDelay="5.60" arrival="213.90" arrivalLane="e0_0" arrivalPos="4800.00" arrivalSpeed="36.83" duration="179.00" routeLength="4998.97" waitingTime="0.00" waitingCount="0" stopTime="0.00" timeLoss="44.88" rerouteNo="0" devices="tripinfo_CAVToC.12 routing_CAVToC.12 ssm_CAVToC.12 toc_CAVToC.12 driverstateCAVToC.12" vType="vehLVOS78" speedFactor="1.03" vaporized=""/>
    <tripinfo id="CVToC.16" depart="39.90" departLane="entry_1" departPos="5.88" departSpeed="30.79" departDelay="3.90" arrival="214.70" arrivalLane="e0_1" arrivalPos="4800.00" arrivalSpeed="31.96" duration="174.80" routeLength="4994.12" waitingTime="0.00" waitingCount="0" stopTime="0.00" timeLoss="42.45" rerouteNo="0" devices="tripinfo_CVToC.16 routing_CVToC.16 ssm_CVToC.16 toc_CVToC.16 driverstateCVToC.16" vType="vehLVOS700" speedFactor="1.05" vaporized=""/>
    <tripinfo id="LV.6" depart="37.90" departLane="entry_0" departPos="2.05" departSpeed="31.52" departDelay="2.60" arrival="215.90" arrivalLane="e0_0" arrivalPos="4800.00" arrivalSpeed="31.50" duration="178.00" routeLength="4997.95" waitingTime="0.00" waitingCount="0" stopTime="0.00" timeLoss="19.42" rerouteNo="0" devices="tripinfo_LV.6 routing_LV.6 ssm_LV.6" vType="vehLVOS286" speedFactor="0.87" vaporized=""/>
    <tripinfo id="CAVToC.13" depart="42.20" departLane="entry_1" departPos="7.23" departSpeed="30.76" departDelay="5.00" arrival="216.90" arrivalLane="e0_1" arrivalPos="4800.00" arrivalSpeed="31.48" duration="174.70" routeLength="4992.77" waitingTime="0.00" waitingCount="0" stopTime="0.00" timeLoss="16.54" rerouteNo="0" devices="tripinfo_CAVToC.13 routing_CAVToC.13 ssm_CAVToC.13 toc_CAVToC.13 driverstateCAVToC.13" vType="vehLVOS11" speedFactor="0.87" vaporized=""/>
    <tripinfo id="CVToC.17" depart="44.90" departLane="entry_1" departPos="15.25" departSpeed="31.14" departDelay="6.10" arrival="218.20" arrivalLane="e0_1" arrivalPos="4800.00" arrivalSpeed="34.46" duration="173.30" routeLength="4984.75" waitingTime="0.00" waitingCount="0" stopTime="0.00" timeLoss="34.74" rerouteNo="0" devices="tripinfo_CVToC.17 routing_CVToC.17 ssm_CVToC.17 toc_CVToC.17 driverstateCVToC.17" vType="vehLVOS292" speedFactor="1.00" vaporized=""/>
    <tripinfo id="LV.7" depart="43.90" departLane="entry_0" departPos="22.09" departSpeed="33.61" departDelay="7.70" arrival="219.30" arrivalLane="e0_0" arrivalPos="4800.00" arrivalSpeed="33.52" duration="175.40" routeLength="4977.91" waitingTime="0.00" waitingCount="0" stopTime="0.00" timeLoss="27.24" rerouteNo="0" devices="tripinfo_LV.7 routing_LV.7 ssm_LV.7" vType="vehLVOS690" speedFactor="0.93" vaporized=""/>
    <tripinfo id="CVToC.18" depart="47.20" departLane="entry_1" departPos="3.94" departSpeed="31.97" departDelay="7.70" arrival="219.40" arrivalLane="e0_1" arrivalPos="4800.00" arrivalSpeed="34.23" duration="172.20" routeLength="4996.06" waitingTime="0.00" waitingCount="0" stopTime="0.00" timeLoss="39.85" rerouteNo="0" devices="tripinfo_CVToC.18 routing_CVToC.18 ssm_CVToC.18 toc_CVToC.18 driverstateCVToC.18" vType="vehLVOS403" speedFactor="1.05" vaporized=""/>
    <tripinfo id="CVToC.20" depart="45.90" departLane="entry_0" departPos="1.86" departSpeed="31.51" departDelay="4.50" arrival="220.50" arrivalLane="e0_0" arrivalPos="4800.00" arrivalSpeed="36.86" duration="174.60" routeLength="4998.14" waitingTime="0.00" waitingCount="0" stopTime="0.00" timeLoss="46.50" rerouteNo="0" devices="tripinfo_CVToC.20 routing_CVToC.20 ssm_CVToC.20 toc_CVToC.20 driverstateCVToC.20" vType="vehLVOS248" speedFactor="1.08" vaporized=""/>
    <tripinfo id="CVToC.19" depart="48.70" departLane="entry_0" departPos="4.22" departSpeed="32.14" departDelay="9.00" arrival="220.70" arrivalLane="e0_1" arrivalPos="4800.00" arrivalSpeed="35.32" duration="172.00" routeLength="4995.78" waitingTime="0.00" waitingCount="0" stopTime="0.00" timeLoss="44.86" rerouteNo="0" devices="tripinfo_CVToC.19 routing_CVToC.19 ssm_CVToC.19 toc_CVToC.19 driverstateCVToC.19" vType="vehLVOS795" speedFactor="1.09" vaporized=""/>
    <tripinfo id="CAVToC.15" depart="51.50" departLane="entry_0" departPos="22.44" departSpeed="32.41" departDelay="9.40" arrival="221.70" arrivalLane="e0_0" arrivalPos="4800.00" arrivalSpeed="32.95" duration="170.20" routeLength="4977.56" waitingTime="0.00" waitingCount="0" stopTime="0.00" timeLoss="19.24" rerouteNo="0" devices="tripinfo_CAVToC.15 routing_CAVToC.15 ssm_CAVToC.15 toc_CAVToC.15 driverstateCAVToC.15" vType="vehLVOS489" speedFactor="0.91" vaporized=""/>
    <tripinfo id="CAVToC.14" depart="49.50" departLane="entry_1" departPos="6.36" departSpeed="32.36" departDelay="12.00" arrival="222.40" arrivalLane="e0_1" arrivalPos="4800.00" arrivalSpeed="32.91" duration="172.90" routeLength="4993.64" waitingTime="0.00" waitingCount="0" stopTime="0.00" timeLoss="21.15" rerouteNo="0" devices="tripinfo_CAVToC.14 routing_CAVToC.14 ssm_CAVToC.14 toc_CAVToC.14 driverstateCAVToC.14" vType="vehLVOS662" speedFactor="0.91" vaporized=""/>
    <tripinfo id="CAVToC.16" depart="52.30" departLane="entry_1" departPos="15.19" departSpeed="33.12" departDelay="9.90" arrival="224.30" arrivalLane="e0_1" arrivalPos="4800.00" arrivalSpeed="34.12" duration="172.00" routeLength="4984.81" waitingTime="0.00" waitingCount="0" stopTime="0.00" timeLoss="41.69" rerouteNo="0" devices="tripinfo_CAVToC.16 routing_CAVToC.16 ssm_CAVToC.16 toc_CAVToC.16 driverstateCAVToC.16" vType="vehLVOS921" speedFactor="1.06" vaporized=""/>
    <tripinfo id="CVToC.21" depart="55.40" departLane="entry_1" departPos="34.31" departSpeed="33.48" departDelay="10.40" arrival="225.70" arrivalLane="e0_1" arrivalPos="4800.00" arrivalSpeed="36.29" duration="170.30" routeLength="4965.69" waitingTime="0.00" waitingCount="0" stopTime="0.00" timeLoss="37.69" rerouteNo="0" devices="tripinfo_CVToC.21 routing_CVToC.21 ssm_CVToC.21 toc_CVToC.21 driverstateCVToC.21" vType="vehLVOS236" speedFactor="1.04" vaporized=""/>
    <tripinfo id="CVToC.25" depart="55.90" departLane="entry_0" departPos="80.77" departSpeed="32.89" departDelay="7.30" arrival="226.00" arrivalLane="e0_0" arrivalPos="4800.00" arrivalSpeed="34.60" duration="170.10" routeLength="4919.23" waitingTime="0.00" waitingCount="0" stopTime="0.00" timeLoss="46.74" rerouteNo="0" devices="tripinfo_CVToC.25 routing_CVToC.25 ssm_CVToC.25 toc_CVToC.25 driverstateCVToC.25" vType="vehLVOS13" speedFactor="1.10" vaporized=""/>
    <tripinfo id="CVToC.23" depart="56.70" departLane="entry_1" departPos="14.51" departSpeed="30.72" departDelay="11.50" arrival="230.00" arrivalLane="e0_1" arrivalPos="4800.00" arrivalSpeed="30.64" duration="173.30" routeLength="4985.49" waitingTime="0.00" waitingCount="0" stopTime="0.00" timeLoss="10.99" rerouteNo="0" devices="tripinfo_CVToC.23 routing_CVToC.23 ssm_CVToC.23 toc_CVToC.23 driverstateCVToC.23" vType="vehLVOS249" speedFactor="0.85" vaporized=""/>
    <tripinfo id="CAVToC.18" depart="55.90" departLane="entry_0" departPos="8.21" departSpeed="33.15" departDelay="6.40" arrival="230.10" arrivalLane="e0_0" arrivalPos="4800.00" arrivalSpeed="30.78" duration="174.20" routeLength="4991.79" waitingTime="0.00" waitingCount="0" stopTime="0.00" timeLoss="28.98" rerouteNo="0" devices="tripinfo_CAVToC.18 routing_CAVToC.18 ssm_CAVToC.18 toc_CAVToC.18 driverstateCAVToC.18" vType="vehLVOS935" speedFactor="0.95" vaporized=""/>
    <tripinfo id="CVToC.24" depart="59.60" departLane="entry_1" departPos="31.00" departSpeed="31.19" departDelay="13.50" arrival="231.70" arrivalLane="e0_1" arrivalPos="4800.00" arrivalSpeed="34.43" duration="172.10" routeLength="4969.00" waitingTime="0.00" waitingCount="0" stopTime="0.00" timeLoss="27.91" rerouteNo="0" devices="tripinfo_CVToC.24 routing_CVToC.24 ssm_CVToC.24 toc_CVToC.24 driverstateCVToC.24" vType="vehLVOS437" speedFactor="0.95" vaporized=""/>
    <tripinfo id="LV.4" depart="64.40" departLane="entry_1" departPos="0.55" departSpeed="44.20" departDelay="46.00" arrival="232.90" arrivalLane="e0_1" arrivalPos="4800.00" arrivalSpeed="34.16" duration="168.50" routeLength="4999.45" waitingTime="0.00" waitingCount="0" stopTime="0.00" timeLoss="55.39" rerouteNo="0" devices="tripinfo_LV.4 routing_LV.4 ssm_LV.4" vType="vehLVOS394" speedFactor="1.22" vaporized=""/>
    <tripinfo id="CAVToC.17" depart="59.20" departLane="entry_0" departPos="36.97" departSpeed="32.53" departDelay="13.70" arrival="234.40" arrivalLane="e0_0" arrivalPos="4800.00" arrivalSpeed="36.06" duration="175.20" routeLength="4963.03" waitingTime="0.00" waitingCount="0" stopTime="0.00" timeLoss="37.58" rerouteNo="0" devices="tripinfo_CAVToC.17 routing_CAVToC.17 ssm_CAVToC.17 toc_CAVToC.17 driverstateCAVToC.17" vType="vehLVOS87" speedFactor="1.00" vaporized=""/>
    <tripinfo id="LV.9" depart="67.70" departLane="entry_1" departPos="43.39" departSpeed="42.17" departDelay="24.10" arrival="234.60" arrivalLane="e0_1" arrivalPos="4800.00" arrivalSpeed="35.91" duration="166.90" routeLength="4956.61" waitingTime="0.00" waitingCount="0" stopTime="0.00" timeLoss="49.34" rerouteNo="0" devices="tripinfo_LV.9 routing_LV.9 ssm_LV.9" vType="vehLVOS963" speedFactor="1.17" vaporized=""/>
    <tripinfo id="LV.10" depart="62.40" departLane="entry_0" departPos="81.23" departSpeed="31.28" departDelay="9.20" arrival="236.10" arrivalLane="e0_1" arrivalPos="4800.00" arrivalSpeed="31.25" duration="173.70" routeLength="4918.77" waitingTime="0.00" waitingCount="0" stopTime="0.00" timeLoss="16.45" rerouteNo="0" devices="tripinfo_LV.10 routing_LV.10 ssm_LV.10" vType="vehLVOS517" speedFactor="0.87" vaporized=""/>
    <tripinfo id="LV.11" depart="62.40" departLane="entry_0" departPos="36.18" departSpeed="30.23" departDelay="7.60" arrival="238.40" arrivalLane="e0_0" arrivalPos="4800.00" arrivalSpeed="30.14" duration="176.00" routeLength="4963.82" waitingTime="0.00" waitingCount="0" stopTime="0.00" timeLoss="11.73" rerouteNo="0" devices="tripinfo_LV.11 routing_LV.11 ssm_LV.11" vType="vehLVOS933" speedFactor="0.84" vaporized=""/>
    <tripinfo id="CVToC.22" depart="68.90" departLane="entry_1" departPos="9.25" departSpeed="36.67" departDelay="23.80" arrival="239.60" arrivalLane="e0_1" arrivalPos="4800.00" arrivalSpeed="37.68" duration="170.70" routeLength="4990.75" waitingTime="0.00" waitingCount="0" stopTime="0.00" timeLoss="47.20" rerouteNo="0" devices="tripinfo_CVToC.22 routing_CVToC.22 ssm_CVToC.22 toc_CVToC.22 driverstateCVToC.22" vType="vehLVOS901" speedFactor="1.12" vaporized=""/>
    <tripinfo id="LV.5" depart="72.20" departLane="entry_1" departPos="0.00" departSpeed="42.35" departDelay="40.30" arrival="240.40" arrivalLane="e0_1" arrivalPos="4800.00" arrivalSpeed="37.84" duration="168.20" routeLength="5000.00" waitingTime="0.00" waitingCount="0" stopTime="0.00" timeLoss="50.13" rerouteNo="0" devices="tripinfo_LV.5 routing_LV.5 ssm_LV.5" vType="vehLVOS43" speedFactor="1.17" vaporized=""/>
    <tripinfo id="CAVToC.20" depart="63.80" departLane="entry_0" departPos="1.05" departSpeed="29.88" departDelay="11.40" arrival="240.70" arrivalLane="e0_0" arrivalPos="4800.00" arrivalSpeed="34.22" duration="176.90" routeLength="4998.95" waitingTime="0.00" waitingCount="0" stopTime="0.00" timeLoss="30.78" rerouteNo="0" devices="tripinfo_CAVToC.20 routing_CAVToC.20 ssm_CAVToC.20 toc_CAVToC.20 driverstateCAVToC.20" vType="vehLVOS348" speedFactor="0.95" vaporized=""/>
    <tripinfo id="CAVToC.22" depart="74.40" departLane="entry_1" departPos="18.76" departSpeed="36.35" departDelay="17.30" arrival="241.30" arrivalLane="e0_1" arrivalPos="4800.00" arrivalSpeed="36.59" duration="166.90" routeLength="4981.24" waitingTime="0.00" waitingCount="0" stopTime="0.00" timeLoss="31.22" rerouteNo="0" devices="tripinfo_CAVToC.22 routing_CAVToC.22 ssm_CAVToC.22 toc_CAVToC.22 driverstateCAVToC.22" vType="vehLVOS725" speedFactor="1.02" vaporized=""/>
    <tripinfo id="CVToC.28" depart="76.00" departLane="entry_1" departPos="0.73" departSpeed="36.34" departDelay="16.70" arrival="242.20" arrivalLane="e0_1" arrivalPos="4800.00" arrivalSpeed="36.25" duration="166.20" routeLength="4999.27" waitingTime="0.00" waitingCount="0" stopTime="0.00" timeLoss="28.79" rerouteNo="0" devices="tripinfo_CVToC.28 routing_CVToC.28 ssm_CVToC.28 toc_CVToC.28 driverstateCVToC.28" vType="vehLVOS725" speedFactor="1.01" vaporized=""/>
    <tripinfo id="CVToC.26" depart="66.40" departLane="entry_0" departPos="6.45" departSpeed="29.49" departDelay="10.60" arrival="242.30" arrivalLane="e0_0" arrivalPos="4800.00" arrivalSpeed="32.88" duration="175.90" routeLength="4993.55" waitingTime="0.00" waitingCount="0" stopTime="0.00" timeLoss="24.30" rerouteNo="0" devices="tripinfo_CVToC.26 routing_CVToC.26 ssm_CVToC.26 toc_CVToC.26 driverstateCVToC.26" vType="vehLVOS414" speedFactor="0.91" vaporized=""/>
    <tripinfo id="LV.14" depart="77.80" departLane="entry_1" departPos="32.45" departSpeed="35.35" departDelay="15.80" arrival="244.00" arrivalLane="e0_1" arrivalPos="4800.00" arrivalSpeed="35.29" duration="166.20" routeLength="4967.55" waitingTime="0.00" waitingCount="0" stopTime="0.00" timeLoss="25.67" rerouteNo="0" devices="tripinfo_LV.14 routing_LV.14 ssm_LV.14" vType="vehLVOS518" speedFactor="0.98" vaporized=""/>