<?xml version="1.0" encoding="UTF-8"?>

<!-- generated on 09/23/20 07:34:05 by Eclipse SUMO Version 1.6.0
<configuration xmlns:xsi="http://www.w3.org/2001/XMLSchema-instance" xsi:noNamespaceSchemaLocation="http://sumo.dlr.de/xsd/sumoConfiguration.xsd">

    <input>
        <net-file value="scenario/UC5_1.net.xml"/>
        <route-files value="scenario/routes_trafficMix_0_trafficDemand_1_driverBehaviour_OS_seed_0.xml"/>
        <additional-files value="scenario/additionalsOutput_trafficMix_0_trafficDemand_1_driverBehaviour_OS_seed_0.xml,scenario/vTypesCAVToC_OS.add.xml,scenario/vTypesCVToC_OS.add.xml,scenario/vTypesLV_OS.add.xml,scenario/shapes.add.xml,scenario/view.add.xml"/>
    </input>

    <output>
        <tripinfo-output value="C:\Users\laborknecht\Aris\workspace\ma-branch\tor-distribution/outputs/simulations/DQN__2020-09-22_13-29-46__20200923-071300/tripinfo_3.xml"/>
    </output>

    <time>
        <step-length value="0.1"/>
    </time>

    <processing>
        <step-method.ballistic value="true"/>
        <ignore-route-errors value="true"/>
        <lanechange.duration value="2.5"/>
    </processing>

    <report>
        <no-step-log value="true"/>
    </report>

    <toc_device>
        <device.toc.ogNewTimeHeadway value="100"/>
        <device.toc.ogNewSpaceHeadway value="5"/>
        <device.toc.ogMaxDecel value="1"/>
        <device.toc.ogChangeRate value="1"/>
    </toc_device>

    <traci_server>
        <remote-port value="50516"/>
    </traci_server>

    <random_number>
        <seed value="1027"/>
    </random_number>

    <gui_only>
        <tracker-interval value="0.1"/>
    </gui_only>

</configuration>
-->

<tripinfos xmlns:xsi="http://www.w3.org/2001/XMLSchema-instance" xsi:noNamespaceSchemaLocation="http://sumo.dlr.de/xsd/tripinfo_file.xsd">
    <tripinfo id="CVToC.0" depart="2.30" departLane="entry_1" departPos="199.90" departSpeed="36.03" departDelay="0.00" arrival="135.70" arrivalLane="e0_0" arrivalPos="4800.00" arrivalSpeed="36.00" duration="133.40" routeLength="4800.10" waitingTime="0.00" waitingCount="0" stopTime="0.00" timeLoss="0.07" rerouteNo="0" devices="tripinfo_CVToC.0 routing_CVToC.0 ssm_CVToC.0 toc_CVToC.0 driverstateCVToC.0" vType="vehLVOS994" speedFactor="1.00" vaporized=""/>
    <tripinfo id="CAVToC.0" depart="0.90" departLane="entry_0" departPos="199.90" departSpeed="34.72" departDelay="0.00" arrival="139.20" arrivalLane="e0_0" arrivalPos="4800.00" arrivalSpeed="34.72" duration="138.30" routeLength="4800.10" waitingTime="0.00" waitingCount="0" stopTime="0.00" timeLoss="0.01" rerouteNo="0" devices="tripinfo_CAVToC.0 routing_CAVToC.0 ssm_CAVToC.0 toc_CAVToC.0 driverstateCAVToC.0" vType="vehLVOS962" speedFactor="0.96" vaporized=""/>
    <tripinfo id="CVToC.1" depart="3.30" departLane="entry_1" departPos="157.41" departSpeed="36.19" departDelay="0.00" arrival="140.60" arrivalLane="e0_1" arrivalPos="4800.00" arrivalSpeed="36.50" duration="137.30" routeLength="4842.59" waitingTime="0.00" waitingCount="0" stopTime="0.00" timeLoss="4.94" rerouteNo="0" devices="tripinfo_CVToC.1 routing_CVToC.1 ssm_CVToC.1 toc_CVToC.1 driverstateCVToC.1" vType="vehLVOS657" speedFactor="1.01" vaporized=""/>
    <tripinfo id="CAVToC.2" depart="4.70" departLane="entry_0" departPos="199.90" departSpeed="36.46" departDelay="0.00" arrival="140.80" arrivalLane="e0_0" arrivalPos="4800.00" arrivalSpeed="36.86" duration="136.10" routeLength="4800.10" waitingTime="0.00" waitingCount="0" stopTime="0.00" timeLoss="12.41" rerouteNo="0" devices="tripinfo_CAVToC.2 routing_CAVToC.2 ssm_CAVToC.2 toc_CAVToC.2 driverstateCAVToC.2" vType="vehLVOS6" speedFactor="1.07" vaporized=""/>
    <tripinfo id="CAVToC.1" depart="3.70" departLane="entry_1" departPos="89.43" departSpeed="36.34" departDelay="0.00" arrival="141.40" arrivalLane="e0_1" arrivalPos="4800.00" arrivalSpeed="37.84" duration="137.70" routeLength="4910.57" waitingTime="0.00" waitingCount="0" stopTime="0.00" timeLoss="7.90" rerouteNo="0" devices="tripinfo_CAVToC.1 routing_CAVToC.1 ssm_CAVToC.1 toc_CAVToC.1 driverstateCAVToC.1" vType="vehLVOS597" speedFactor="1.05" vaporized=""/>
    <tripinfo id="LV.0" depart="3.90" departLane="entry_1" departPos="0.45" departSpeed="40.95" departDelay="0.10" arrival="142.70" arrivalLane="e0_1" arrivalPos="4800.00" arrivalSpeed="38.65" duration="138.80" routeLength="4999.55" waitingTime="0.00" waitingCount="0" stopTime="0.00" timeLoss="16.69" rerouteNo="0" devices="tripinfo_LV.0 routing_LV.0 ssm_LV.0" vType="vehLVOS602" speedFactor="1.13" vaporized=""/>
    <tripinfo id="LV.1" depart="5.30" departLane="entry_1" departPos="44.96" departSpeed="38.10" departDelay="0.00" arrival="143.70" arrivalLane="e0_1" arrivalPos="4800.00" arrivalSpeed="38.09" duration="138.40" routeLength="4955.04" waitingTime="0.00" waitingCount="0" stopTime="0.00" timeLoss="8.35" rerouteNo="0" devices="tripinfo_LV.1 routing_LV.1 ssm_LV.1" vType="vehLVOS213" speedFactor="1.06" vaporized=""/>
    <tripinfo id="CAVToC.3" depart="5.10" departLane="entry_0" departPos="121.22" departSpeed="37.00" departDelay="0.10" arrival="144.10" arrivalLane="e0_0" arrivalPos="4800.00" arrivalSpeed="38.56" duration="139.00" routeLength="4878.78" waitingTime="0.00" waitingCount="0" stopTime="0.00" timeLoss="28.20" rerouteNo="0" devices="tripinfo_CAVToC.3 routing_CAVToC.3 ssm_CAVToC.3 toc_CAVToC.3 driverstateCAVToC.3" vType="vehLVOS679" speedFactor="1.22" vaporized=""/>
    <tripinfo id="CAVToC.6" depart="6.60" departLane="entry_1" departPos="17.39" departSpeed="36.34" departDelay="0.20" arrival="145.50" arrivalLane="e0_1" arrivalPos="4800.00" arrivalSpeed="37.62" duration="138.90" routeLength="4982.61" waitingTime="0.00" waitingCount="0" stopTime="0.00" timeLoss="6.45" rerouteNo="0" devices="tripinfo_CAVToC.6 routing_CAVToC.6 ssm_CAVToC.6 toc_CAVToC.6 driverstateCAVToC.6" vType="vehLVOS434" speedFactor="1.04" vaporized=""/>
    <tripinfo id="CAVToC.4" depart="5.90" departLane="entry_0" departPos="64.24" departSpeed="36.59" departDelay="0.30" arrival="147.10" arrivalLane="e0_0" arrivalPos="4800.00" arrivalSpeed="39.74" duration="141.20" routeLength="4935.76" waitingTime="0.00" waitingCount="0" stopTime="0.00" timeLoss="17.05" rerouteNo="0" devices="tripinfo_CAVToC.4 routing_CAVToC.4 ssm_CAVToC.4 toc_CAVToC.4 driverstateCAVToC.4" vType="vehLVOS574" speedFactor="1.10" vaporized=""/>
    <tripinfo id="CVToC.2" depart="8.20" departLane="entry_1" departPos="1.85" departSpeed="35.45" departDelay="1.30" arrival="150.20" arrivalLane="e0_1" arrivalPos="4800.00" arrivalSpeed="35.41" duration="142.00" routeLength="4998.15" waitingTime="0.00" waitingCount="0" stopTime="0.00" timeLoss="0.99" rerouteNo="0" devices="tripinfo_CVToC.2 routing_CVToC.2 ssm_CVToC.2 toc_CVToC.2 driverstateCVToC.2" vType="vehLVOS812" speedFactor="0.98" vaporized=""/>
    <tripinfo id="CAVToC.5" depart="6.60" departLane="entry_0" departPos="1.23" departSpeed="36.64" departDelay="0.50" arrival="152.30" arrivalLane="e0_0" arrivalPos="4800.00" arrivalSpeed="37.81" duration="145.70" routeLength="4998.77" waitingTime="0.00" waitingCount="0" stopTime="0.00" timeLoss="21.35" rerouteNo="0" devices="tripinfo_CAVToC.5 routing_CAVToC.5 ssm_CAVToC.5 toc_CAVToC.5 driverstateCAVToC.5" vType="vehLVOS866" speedFactor="1.11" vaporized=""/>
    <tripinfo id="CAVToC.7" depart="10.40" departLane="entry_1" departPos="10.97" departSpeed="33.88" departDelay="2.20" arrival="159.90" arrivalLane="e0_1" arrivalPos="4800.00" arrivalSpeed="33.66" duration="149.50" routeLength="4989.03" waitingTime="0.00" waitingCount="0" stopTime="0.00" timeLoss="2.17" rerouteNo="0" devices="tripinfo_CAVToC.7 routing_CAVToC.7 ssm_CAVToC.7 toc_CAVToC.7 driverstateCAVToC.7" vType="vehLVOS457" speedFactor="0.94" vaporized=""/>
    <tripinfo id="CVToC.3" depart="8.90" departLane="entry_0" departPos="4.94" departSpeed="36.35" departDelay="0.90" arrival="161.00" arrivalLane="e0_0" arrivalPos="4800.00" arrivalSpeed="35.18" duration="152.10" routeLength="4995.06" waitingTime="0.00" waitingCount="0" stopTime="0.00" timeLoss="19.20" rerouteNo="0" devices="tripinfo_CVToC.3 routing_CVToC.3 ssm_CVToC.3 toc_CVToC.3 driverstateCVToC.3" vType="vehLVOS153" speedFactor="1.04" vaporized=""/>
    <tripinfo id="LV.2" depart="11.40" departLane="entry_0" departPos="18.33" departSpeed="37.94" departDelay="0.10" arrival="161.40" arrivalLane="e0_1" arrivalPos="4800.00" arrivalSpeed="35.37" duration="150.00" routeLength="4981.67" waitingTime="0.00" waitingCount="0" stopTime="0.00" timeLoss="18.69" rerouteNo="0" devices="tripinfo_LV.2 routing_LV.2 ssm_LV.2" vType="vehLVOS915" speedFactor="1.05" vaporized=""/>
    <tripinfo id="CVToC.4" depart="12.30" departLane="entry_1" departPos="7.88" departSpeed="31.23" departDelay="0.20" arrival="173.10" arrivalLane="e0_1" arrivalPos="4800.00" arrivalSpeed="31.21" duration="160.80" routeLength="4992.12" waitingTime="0.00" waitingCount="0" stopTime="0.00" timeLoss="0.90" rerouteNo="0" devices="tripinfo_CVToC.4 routing_CVToC.4 ssm_CVToC.4 toc_CVToC.4 driverstateCVToC.4" vType="vehLVOS807" speedFactor="0.86" vaporized=""/>
    <tripinfo id="CVToC.5" depart="13.00" departLane="entry_0" departPos="9.70" departSpeed="31.63" departDelay="0.00" arrival="173.70" arrivalLane="e0_0" arrivalPos="4800.00" arrivalSpeed="31.62" duration="160.70" routeLength="4990.30" waitingTime="0.00" waitingCount="0" stopTime="0.00" timeLoss="2.91" rerouteNo="0" devices="tripinfo_CVToC.5 routing_CVToC.5 ssm_CVToC.5 toc_CVToC.5 driverstateCVToC.5" vType="vehLVOS87" speedFactor="0.88" vaporized=""/>
    <tripinfo id="CAVToC.8" depart="15.50" departLane="entry_1" departPos="17.62" departSpeed="32.35" departDelay="3.70" arrival="174.80" arrivalLane="e0_1" arrivalPos="4800.00" arrivalSpeed="33.97" duration="159.30" routeLength="4982.38" waitingTime="0.00" waitingCount="0" stopTime="0.00" timeLoss="38.39" rerouteNo="0" devices="tripinfo_CAVToC.8 routing_CAVToC.8 ssm_CAVToC.8 toc_CAVToC.8 driverstateCAVToC.8" vType="vehLVOS704" speedFactor="1.14" vaporized=""/>
    <tripinfo id="CAVToC.9" depart="17.90" departLane="entry_1" departPos="7.58" departSpeed="33.11" departDelay="0.70" arrival="175.70" arrivalLane="e0_1" arrivalPos="4800.00" arrivalSpeed="34.92" duration="157.80" routeLength="4992.42" waitingTime="0.00" waitingCount="0" stopTime="0.00" timeLoss="33.04" rerouteNo="0" devices="tripinfo_CAVToC.9 routing_CAVToC.9 ssm_CAVToC.9 toc_CAVToC.9 driverstateCAVToC.9" vType="vehLVOS505" speedFactor="1.11" vaporized=""/>
    <tripinfo id="CVToC.6" depart="15.60" departLane="entry_0" departPos="8.46" departSpeed="31.93" departDelay="0.10" arrival="176.00" arrivalLane="e0_0" arrivalPos="4800.00" arrivalSpeed="35.10" duration="160.40" routeLength="4991.54" waitingTime="0.00" waitingCount="0" stopTime="0.00" timeLoss="25.04" rerouteNo="0" devices="tripinfo_CVToC.6 routing_CVToC.6 ssm_CVToC.6 toc_CVToC.6 driverstateCVToC.6" vType="vehLVOS223" speedFactor="1.02" vaporized=""/>
    <tripinfo id="LV.5" depart="18.90" departLane="entry_1" departPos="23.31" departSpeed="31.33" departDelay="0.20" arrival="180.40" arrivalLane="e0_1" arrivalPos="4800.00" arrivalSpeed="31.33" duration="161.50" routeLength="4976.69" waitingTime="0.00" waitingCount="0" stopTime="0.00" timeLoss="2.66" rerouteNo="0" devices="tripinfo_LV.5 routing_LV.5 ssm_LV.5" vType="vehLVOS158" speedFactor="0.87" vaporized=""/>
    <tripinfo id="LV.4" depart="18.00" departLane="entry_0" departPos="42.88" departSpeed="30.92" departDelay="0.20" arrival="181.30" arrivalLane="e0_0" arrivalPos="4800.00" arrivalSpeed="30.91" duration="163.30" routeLength="4957.12" waitingTime="0.00" waitingCount="0" stopTime="0.00" timeLoss="2.94" rerouteNo="0" devices="tripinfo_LV.4 routing_LV.4 ssm_LV.4" vType="vehLVOS409" speedFactor="0.86" vaporized=""/>
    <tripinfo id="CAVToC.11" depart="20.60" departLane="entry_1" departPos="3.15" departSpeed="31.83" departDelay="0.50" arrival="182.70" arrivalLane="e0_1" arrivalPos="4800.00" arrivalSpeed="35.36" duration="162.10" routeLength="4996.85" waitingTime="0.00" waitingCount="0" stopTime="0.00" timeLoss="20.70" rerouteNo="0" devices="tripinfo_CAVToC.11 routing_CAVToC.11 ssm_CAVToC.11 toc_CAVToC.11 driverstateCAVToC.11" vType="vehLVOS748" speedFactor="0.98" vaporized=""/>
    <tripinfo id="CVToC.7" depart="19.30" departLane="entry_0" departPos="10.00" departSpeed="31.14" departDelay="1.20" arrival="183.70" arrivalLane="e0_0" arrivalPos="4800.00" arrivalSpeed="32.85" duration="164.40" routeLength="4990.00" waitingTime="0.00" waitingCount="0" stopTime="0.00" timeLoss="12.52" rerouteNo="0" devices="tripinfo_CVToC.7 routing_CVToC.7 ssm_CVToC.7 toc_CVToC.7 driverstateCVToC.7" vType="vehLVOS426" speedFactor="0.91" vaporized=""/>
    <tripinfo id="CVToC.8" depart="23.30" departLane="entry_1" departPos="8.37" departSpeed="32.25" departDelay="3.70" arrival="184.10" arrivalLane="e0_1" arrivalPos="4800.00" arrivalSpeed="35.89" duration="160.80" routeLength="4991.63" waitingTime="0.00" waitingCount="0" stopTime="0.00" timeLoss="22.01" rerouteNo="0" devices="tripinfo_CVToC.8 routing_CVToC.8 ssm_CVToC.8 toc_CVToC.8 driverstateCVToC.8" vType="vehLVOS3" speedFactor="1.00" vaporized=""/>
    <tripinfo id="CAVToC.12" depart="25.60" departLane="entry_1" departPos="1.01" departSpeed="32.89" departDelay="5.00" arrival="185.10" arrivalLane="e0_1" arrivalPos="4800.00" arrivalSpeed="35.53" duration="159.50" routeLength="4998.99" waitingTime="0.00" waitingCount="0" stopTime="0.00" timeLoss="31.16" rerouteNo="0" devices="tripinfo_CAVToC.12 routing_CAVToC.12 ssm_CAVToC.12 toc_CAVToC.12 driverstateCAVToC.12" vType="vehLVOS866" speedFactor="1.08" vaporized=""/>
    <tripinfo id="CAVToC.10" depart="21.80" departLane="entry_0" departPos="1.80" departSpeed="31.99" departDelay="3.10" arrival="185.50" arrivalLane="e0_0" arrivalPos="4800.00" arrivalSpeed="36.08" duration="163.70" routeLength="4998.20" waitingTime="0.00" waitingCount="0" stopTime="0.00" timeLoss="37.66" rerouteNo="0" devices="tripinfo_CAVToC.10 routing_CAVToC.10 ssm_CAVToC.10 toc_CAVToC.10 driverstateCAVToC.10" vType="vehLVOS487" speedFactor="1.10" vaporized=""/>
    <tripinfo id="CVToC.10" depart="27.80" departLane="entry_1" departPos="3.77" departSpeed="32.85" departDelay="1.60" arrival="187.20" arrivalLane="e0_0" arrivalPos="4800.00" arrivalSpeed="33.24" duration="159.40" routeLength="4996.23" waitingTime="0.00" waitingCount="0" stopTime="0.00" timeLoss="9.13" rerouteNo="0" devices="tripinfo_CVToC.10 routing_CVToC.10 ssm_CVToC.10 toc_CVToC.10 driverstateCVToC.10" vType="vehLVOS880" speedFactor="0.92" vaporized=""/>
    <tripinfo id="CAVToC.13" depart="23.90" departLane="entry_0" departPos="0.21" departSpeed="31.93" departDelay="3.20" arrival="188.50" arrivalLane="e0_0" arrivalPos="4800.00" arrivalSpeed="33.07" duration="164.60" routeLength="4999.79" waitingTime="0.00" waitingCount="0" stopTime="0.00" timeLoss="13.46" rerouteNo="0" devices="tripinfo_CAVToC.13 routing_CAVToC.13 ssm_CAVToC.13 toc_CAVToC.13 driverstateCAVToC.13" vType="vehLVOS308" speedFactor="0.92" vaporized=""/>
    <tripinfo id="CVToC.11" depart="30.60" departLane="entry_1" departPos="21.74" departSpeed="32.25" departDelay="0.20" arrival="189.20" arrivalLane="e0_1" arrivalPos="4800.00" arrivalSpeed="32.81" duration="158.60" routeLength="4978.26" waitingTime="0.00" waitingCount="0" stopTime="0.00" timeLoss="7.12" rerouteNo="0" devices="tripinfo_CVToC.11 routing_CVToC.11 ssm_CVToC.11 toc_CVToC.11 driverstateCVToC.11" vType="vehLVOS899" speedFactor="0.91" vaporized=""/>
    <tripinfo id="CAVToC.16" depart="33.20" departLane="entry_1" departPos="17.19" departSpeed="32.25" departDelay="3.20" arrival="190.00" arrivalLane="e0_1" arrivalPos="4800.00" arrivalSpeed="33.68" duration="156.80" routeLength="4982.81" waitingTime="0.00" waitingCount="0" stopTime="0.00" timeLoss="35.89" rerouteNo="0" devices="tripinfo_CAVToC.16 routing_CAVToC.16 ssm_CAVToC.16 toc_CAVToC.16 driverstateCAVToC.16" vType="vehLVOS420" speedFactor="1.14" vaporized=""/>
    <tripinfo id="CVToC.12" depart="35.80" departLane="entry_1" departPos="12.10" departSpeed="31.99" departDelay="2.40" arrival="191.40" arrivalLane="e0_1" arrivalPos="4800.00" arrivalSpeed="35.71" duration="155.60" routeLength="4987.90" waitingTime="0.00" waitingCount="0" stopTime="0.00" timeLoss="31.04" rerouteNo="0" devices="tripinfo_CVToC.12 routing_CVToC.12 ssm_CVToC.12 toc_CVToC.12 driverstateCVToC.12" vType="vehLVOS712" speedFactor="1.11" vaporized=""/>
    <tripinfo id="LV.7" depart="34.50" departLane="entry_0" departPos="6.42" departSpeed="37.79" departDelay="4.10" arrival="192.20" arrivalLane="e0_0" arrivalPos="4800.00" arrivalSpeed="36.14" duration="157.70" routeLength="4993.58" waitingTime="0.00" waitingCount="0" stopTime="0.00" timeLoss="25.53" rerouteNo="0" devices="tripinfo_LV.7 routing_LV.7 ssm_LV.7" vType="vehLVOS989" speedFactor="1.05" vaporized=""/>
    <tripinfo id="CVToC.9" depart="28.70" departLane="entry_0" departPos="0.97" departSpeed="32.04" departDelay="5.10" arrival="193.00" arrivalLane="e0_1" arrivalPos="4800.00" arrivalSpeed="37.63" duration="164.30" routeLength="4999.03" waitingTime="0.00" waitingCount="0" stopTime="0.00" timeLoss="33.07" rerouteNo="0" devices="tripinfo_CVToC.9 routing_CVToC.9 ssm_CVToC.9 toc_CVToC.9 driverstateCVToC.9" vType="vehLVOS650" speedFactor="1.06" vaporized=""/>
    <tripinfo id="CAVToC.14" depart="26.30" departLane="entry_0" departPos="8.63" departSpeed="31.24" departDelay="4.20" arrival="195.30" arrivalLane="e0_0" arrivalPos="4800.00" arrivalSpeed="31.12" duration="169.00" routeLength="4991.37" waitingTime="0.00" waitingCount="0" stopTime="0.00" timeLoss="9.18" rerouteNo="0" devices="tripinfo_CAVToC.14 routing_CAVToC.14 ssm_CAVToC.14 toc_CAVToC.14 driverstateCAVToC.14" vType="vehLVOS681" speedFactor="0.87" vaporized=""/>
    <tripinfo id="CAVToC.17" depart="38.30" departLane="entry_1" departPos="26.94" departSpeed="29.87" departDelay="3.10" arrival="208.80" arrivalLane="e0_1" arrivalPos="4800.00" arrivalSpeed="29.74" duration="170.50" routeLength="4973.06" waitingTime="0.00" waitingCount="0" stopTime="0.00" timeLoss="4.02" rerouteNo="0" devices="tripinfo_CAVToC.17 routing_CAVToC.17 ssm_CAVToC.17 toc_CAVToC.17 driverstateCAVToC.17" vType="vehLVOS351" speedFactor="0.83" vaporized=""/>
    <tripinfo id="CAVToC.15" depart="31.40" departLane="entry_0" departPos="12.22" departSpeed="31.62" departDelay="2.50" arrival="209.40" arrivalLane="e0_0" arrivalPos="4800.00" arrivalSpeed="30.42" duration="178.00" routeLength="4987.78" waitingTime="0.00" waitingCount="0" stopTime="0.00" timeLoss="29.26" rerouteNo="0" devices="tripinfo_CAVToC.15 routing_CAVToC.15 ssm_CAVToC.15 toc_CAVToC.15 driverstateCAVToC.15" vType="vehLVOS849" speedFactor="0.93" vaporized=""/>
    <tripinfo id="LV.9" depart="38.00" departLane="entry_0" departPos="45.35" departSpeed="36.40" departDelay="5.10" arrival="210.10" arrivalLane="e0_1" arrivalPos="4800.00" arrivalSpeed="31.15" duration="172.10" routeLength="4954.65" waitingTime="0.00" waitingCount="0" stopTime="0.00" timeLoss="35.94" rerouteNo="0" devices="tripinfo_LV.9 routing_LV.9 ssm_LV.9" vType="vehLVOS15" speedFactor="1.01" vaporized=""/>
    <tripinfo id="CAVToC.18" depart="41.20" departLane="entry_1" departPos="27.81" departSpeed="30.67" departDelay="4.90" arrival="211.70" arrivalLane="e0_1" arrivalPos="4800.00" arrivalSpeed="31.80" duration="170.50" routeLength="4972.19" waitingTime="0.00" waitingCount="0" stopTime="0.00" timeLoss="44.55" rerouteNo="0" devices="tripinfo_CAVToC.18 routing_CAVToC.18 ssm_CAVToC.18 toc_CAVToC.18 driverstateCAVToC.18" vType="vehLVOS546" speedFactor="1.09" vaporized=""/>
    <tripinfo id="LV.3" depart="41.70" departLane="entry_0" departPos="1.38" departSpeed="42.65" departDelay="30.20" arrival="213.00" arrivalLane="e0_1" arrivalPos="4800.00" arrivalSpeed="32.17" duration="171.30" routeLength="4998.62" waitingTime="0.00" waitingCount="0" stopTime="0.00" timeLoss="54.06" rerouteNo="0" devices="tripinfo_LV.3 routing_LV.3 ssm_LV.3" vType="vehLVOS906" speedFactor="1.18" vaporized=""/>
    <tripinfo id="CAVToC.19" depart="44.30" departLane="entry_1" departPos="35.04" departSpeed="30.99" departDelay="6.50" arrival="216.10" arrivalLane="e0_1" arrivalPos="4800.00" arrivalSpeed="35.11" duration="171.80" routeLength="4964.96" waitingTime="0.00" waitingCount="0" stopTime="0.00" timeLoss="43.86" rerouteNo="0" devices="tripinfo_CAVToC.19 routing_CAVToC.19 ssm_CAVToC.19 toc_CAVToC.19 driverstateCAVToC.19" vType="vehLVOS752" speedFactor="1.08" vaporized=""/>
    <tripinfo id="CVToC.14" depart="44.70" departLane="entry_0" departPos="25.51" departSpeed="31.25" departDelay="2.90" arrival="216.50" arrivalLane="e0_0" arrivalPos="4800.00" arrivalSpeed="36.02" duration="171.80" routeLength="4974.49" waitingTime="0.00" waitingCount="0" stopTime="0.00" timeLoss="43.54" rerouteNo="0" devices="tripinfo_CVToC.14 routing_CVToC.14 ssm_CVToC.14 toc_CVToC.14 driverstateCVToC.14" vType="vehLVOS11" speedFactor="1.07" vaporized=""/>
    <tripinfo id="CVToC.13" depart="47.50" departLane="entry_0" departPos="12.76" departSpeed="32.12" departDelay="8.20" arrival="217.20" arrivalLane="e0_1" arrivalPos="4800.00" arrivalSpeed="34.29" duration="169.70" routeLength="4987.24" waitingTime="0.00" waitingCount="0" stopTime="0.00" timeLoss="62.49" rerouteNo="0" devices="tripinfo_CVToC.13 routing_CVToC.13 ssm_CVToC.13 toc_CVToC.13 driverstateCVToC.13" vType="vehLVOS546" speedFactor="1.29" vaporized=""/>
    <tripinfo id="LV.11" depart="48.50" departLane="entry_1" departPos="22.11" departSpeed="29.87" departDelay="7.10" arrival="218.20" arrivalLane="e0_0" arrivalPos="4800.00" arrivalSpeed="35.82" duration="169.70" routeLength="4977.89" waitingTime="0.00" waitingCount="0" stopTime="0.00" timeLoss="46.15" rerouteNo="0" devices="tripinfo_LV.11 routing_LV.11 ssm_LV.11" vType="vehLVOS563" speedFactor="1.12" vaporized=""/>
    <tripinfo id="CAVToC.22" depart="53.60" departLane="entry_1" departPos="85.35" departSpeed="29.03" departDelay="4.50" arrival="219.20" arrivalLane="e0_0" arrivalPos="4800.00" arrivalSpeed="36.63" duration="165.60" routeLength="4914.65" waitingTime="0.00" waitingCount="0" stopTime="0.00" timeLoss="36.86" rerouteNo="0" devices="tripinfo_CAVToC.22 routing_CAVToC.22 ssm_CAVToC.22 toc_CAVToC.22 driverstateCAVToC.22" vType="vehLVOS769" speedFactor="1.06" vaporized=""/>
    <tripinfo id="CVToC.15" depart="56.00" departLane="entry_1" departPos="80.79" departSpeed="30.00" departDelay="3.70" arrival="220.10" arrivalLane="e0_1" arrivalPos="4800.00" arrivalSpeed="35.22" duration="164.10" routeLength="4919.21" waitingTime="0.00" waitingCount="0" stopTime="0.00" timeLoss="26.42" rerouteNo="0" devices="tripinfo_CVToC.15 routing_CVToC.15 ssm_CVToC.15 toc_CVToC.15 driverstateCVToC.15" vType="vehLVOS344" speedFactor="0.99" vaporized=""/>
    <tripinfo id="CAVToC.20" depart="49.50" departLane="entry_0" departPos="3.32" departSpeed="32.20" departDelay="4.30" arrival="220.80" arrivalLane="e0_0" arrivalPos="4800.00" arrivalSpeed="35.26" duration="171.30" routeLength="4996.68" waitingTime="0.00" waitingCount="0" stopTime="0.00" timeLoss="29.76" rerouteNo="0" devices="tripinfo_CAVToC.20 routing_CAVToC.20 ssm_CAVToC.20 toc_CAVToC.20 driverstateCAVToC.20" vType="vehLVOS867" speedFactor="0.98" vaporized=""/>
    <tripinfo id="CAVToC.21" depart="53.30" departLane="entry_0" departPos="24.12" departSpeed="29.37" departDelay="7.50" arrival="222.10" arrivalLane="e0_0" arrivalPos="4800.00" arrivalSpeed="37.15" duration="168.80" routeLength="4975.88" waitingTime="0.00" waitingCount="0" stopTime="0.00" timeLoss="51.74" rerouteNo="0" devices="tripinfo_CAVToC.21 routing_CAVToC.21 ssm_CAVToC.21 toc_CAVToC.21 driverstateCAVToC.21" vType="vehLVOS983" speedFactor="1.18" vaporized=""/>
    <tripinfo id="LV.8" depart="57.60" departLane="entry_1" departPos="5.33" departSpeed="32.76" departDelay="26.20" arrival="223.00" arrivalLane="e0_1" arrivalPos="4800.00" arrivalSpeed="32.75" duration="165.40" routeLength="4994.67" waitingTime="0.00" waitingCount="0" stopTime="0.00" timeLoss="12.94" rerouteNo="0" devices="tripinfo_LV.8 routing_LV.8 ssm_LV.8" vType="vehLVOS147" speedFactor="0.91" vaporized=""/>
    <tripinfo id="LV.13" depart="58.30" departLane="entry_0" departPos="8.00" departSpeed="41.54" departDelay="11.20" arrival="224.20" arrivalLane="e0_0" arrivalPos="4800.00" arrivalSpeed="34.16" duration="165.90" routeLength="4992.00" waitingTime="0.00" waitingCount="0" stopTime="0.00" timeLoss="45.66" rerouteNo="0" devices="tripinfo_LV.13 routing_LV.13 ssm_LV.13" vType="vehLVOS824" speedFactor="1.15" vaporized=""/>
    <tripinfo id="LV.10" depart="60.90" departLane="entry_1" departPos="2.43" departSpeed="36.38" departDelay="25.60" arrival="225.10" arrivalLane="e0_1" arrivalPos="4800.00" arrivalSpeed="35.70" duration="164.20" routeLength="4997.57" waitingTime="0.00" waitingCount="0" stopTime="0.00" timeLoss="26.80" rerouteNo="0" devices="tripinfo_LV.10 routing_LV.10 ssm_LV.10" vType="vehLVOS886" speedFactor="1.01" vaporized=""/>
    <tripinfo id="LV.14" depart="63.40" departLane="entry_1" departPos="0.29" departSpeed="41.19" departDelay="5.30" arrival="226.10" arrivalLane="e0_1" arrivalPos="4800.00" arrivalSpeed="37.25" duration="162.70" routeLength="4999.71" waitingTime="0.00" waitingCount="0" stopTime="0.00" timeLoss="41.26" rerouteNo="0" devices="tripinfo_LV.14 routing_LV.14 ssm_LV.14" vType="vehLVOS115" speedFactor="1.14" vaporized=""/>
    <tripinfo id="CVToC.16" depart="60.80" departLane="entry_0" departPos="18.22" departSpeed="32.47" departDelay="3.40" arrival="227.00" arrivalLane="e0_0" arrivalPos="4800.00" arrivalSpeed="35.28" duration="166.20" routeLength="4981.78" waitingTime="0.00" waitingCount="0" stopTime="0.00" timeLoss="31.49" rerouteNo="0" devices="tripinfo_CVToC.16 routing_CVToC.16 ssm_CVToC.16 toc_CVToC.16 driverstateCVToC.16" vType="vehLVOS686" speedFactor="1.02" vaporized=""/>
    <tripinfo id="CVToC.19" depart="64.30" departLane="entry_0" departPos="46.80" departSpeed="31.64" departDelay="1.50" arrival="228.10" arrivalLane="e0_0" arrivalPos="4800.00" arrivalSpeed="35.96" duration="163.80" routeLength="4953.20" waitingTime="0.00" waitingCount="0" stopTime="0.00" timeLoss="32.31" rerouteNo="0" devices="tripinfo_CVToC.19 routing_CVToC.19 ssm_CVToC.19 toc_CVToC.19 driverstateCVToC.19" vType="vehLVOS347" speedFactor="1.04" vaporized=""/>
    <tripinfo id="LV.6" depart="66.60" departLane="entry_1" departPos="2.15" departSpeed="40.57" departDelay="40.50" arrival="228.40" arrivalLane="e0_1" arrivalPos="4800.00" arrivalSpeed="39.16" duration="161.80" routeLength="4997.85" waitingTime="0.00" waitingCount="0" stopTime="0.00" timeLoss="38.51" rerouteNo="0" devices="tripinfo_LV.6 routing_LV.6 ssm_LV.6" vType="vehLVOS463" speedFactor="1.12" vaporized=""/>
    <tripinfo id="LV.16" depart="66.10" departLane="entry_0" departPos="72.67" departSpeed="31.94" departDelay="5.40" arrival="229.40" arrivalLane="e0_0" arrivalPos="4800.00" arrivalSpeed="31.86" duration="163.30" routeLength="4927.33" waitingTime="0.00" waitingCount="0" stopTime="0.00" timeLoss="9.00" rerouteNo="0" devices="tripinfo_LV.16 routing_LV.16 ssm_LV.16" vType="vehLVOS116" speedFactor="0.88" vaporized=""/>
    <tripinfo id="LV.15" depart="67.70" departLane="entry_1" departPos="5.63" departSpeed="38.40" departDelay="7.50" arrival="229.70" arrivalLane="e0_1" arrivalPos="4800.00" arrivalSpeed="38.40" duration="162.00" routeLength="4994.37" waitingTime="0.00" waitingCount="0" stopTime="0.00" timeLoss="31.95" rerouteNo="0" devices="tripinfo_LV.15 routing_LV.15 ssm_LV.15" vType="vehLVOS876" speedFactor="1.06" vaporized=""/>
    <tripinfo id="CVToC.18" depart="69.40" departLane="entry_1" departPos="1.07" departSpeed="34.24" departDelay="8.20" arrival="231.40" arrivalLane="e0_1" arrivalPos="4800.00" arrivalSpeed="34.14" duration="162.00" routeLength="4998.93" waitingTime="0.00" waitingCount="0" stopTime="0.00" timeLoss="16.01" rerouteNo="0" devices="tripinfo_CVToC.18 routing_CVToC.18 ssm_CVToC.18 toc_CVToC.18 driverstateCVToC.18" vType="vehLVOS366" speedFactor="0.95" vaporized=""/>
    <tripinfo id="LV.17" depart="69.90" departLane="entry_0" departPos="0.53" departSpeed="32.26" departDelay="0.60" arrival="232.30" arrivalLane="e0_0" arrivalPos="4800.00" arrivalSpeed="32.25" duration="162.40" routeLength="4999.47" waitingTime="0.00" waitingCount="0" stopTime="0.00" timeLoss="7.45" rerouteNo="0" devices="tripinfo_LV.17 routing_LV.17 ssm_LV.17" vType="vehLVOS420" speedFactor="0.89" vaporized=""/>
    <tripinfo id="CVToC.20" depart="66.10" departLane="entry_0" departPos="10.29" departSpeed="29.10" departDelay="1.40" arrival="237.80" arrivalLane="e0_1" arrivalPos="4800.00" arrivalSpeed="29.08" duration="171.70" routeLength="4989.71" waitingTime="0.00" waitingCount="0" stopTime="0.00" timeLoss="0.22" rerouteNo="0" devices="tripinfo_CVToC.20 routing_CVToC.20 ssm_CVToC.20 toc_CVToC.20 driverstateCVToC.20" vType="vehLVOS931" speedFactor="0.81" vaporized=""/>
    <tripinfo id="CVToC.17" depart="68.30" departLane="entry_0" departPos="3.90" departSpeed="29.47" departDelay="7.80" arrival="240.00" arrivalLane="e0_0" arrivalPos="4800.00" arrivalSpeed="31.19" duration="171.70" routeLength="4996.10" waitingTime="0.00" waitingCount="0" stopTime="0.00" timeLoss="14.26" rerouteNo="0" devices="tripinfo_CVToC.17 routing_CVToC.17 ssm_CVToC.17 toc_CVToC.17 driverstateCVToC.17" vType="vehLVOS313" speedFactor="0.88" vaporized=""/>
    <tripinfo id="CVToC.22" depart="74.80" departLane="entry_1" departPos="25.35" departSpeed="29.92" departDelay="2.90" arrival="240.20" arrivalLane="e0_1" arrivalPos="4800.00" arrivalSpeed="32.34" duration="165.40" routeLength="4974.65" waitingTime="0.00" waitingCount="0" stopTime="0.00" timeLoss="34.63" rerouteNo="0" devices="tripinfo_CVToC.22 routing_CVToC.22 ssm_CVToC.22 toc_CVToC.22 driverstateCVToC.22" vType="vehLVOS594" speedFactor="1.05" vaporized=""/>