<?xml version="1.0" encoding="UTF-8"?>

<!-- generated on 09/23/20 07:56:02 by Eclipse SUMO Version 1.6.0
<configuration xmlns:xsi="http://www.w3.org/2001/XMLSchema-instance" xsi:noNamespaceSchemaLocation="http://sumo.dlr.de/xsd/sumoConfiguration.xsd">

    <input>
        <net-file value="scenario/UC5_1.net.xml"/>
        <route-files value="scenario/routes_trafficMix_0_trafficDemand_1_driverBehaviour_OS_seed_0.xml"/>
        <additional-files value="scenario/additionalsOutput_trafficMix_0_trafficDemand_1_driverBehaviour_OS_seed_0.xml,scenario/vTypesCAVToC_OS.add.xml,scenario/vTypesCVToC_OS.add.xml,scenario/vTypesLV_OS.add.xml,scenario/shapes.add.xml,scenario/view.add.xml"/>
    </input>

    <output>
        <tripinfo-output value="C:\Users\laborknecht\Aris\workspace\ma-branch\tor-distribution/outputs/simulations/DQN__2020-09-22_13-29-46__20200923-071300/tripinfo_5.xml"/>
    </output>

    <time>
        <step-length value="0.1"/>
    </time>

    <processing>
        <step-method.ballistic value="true"/>
        <ignore-route-errors value="true"/>
        <lanechange.duration value="2.5"/>
    </processing>

    <report>
        <no-step-log value="true"/>
    </report>

    <toc_device>
        <device.toc.ogNewTimeHeadway value="100"/>
        <device.toc.ogNewSpaceHeadway value="5"/>
        <device.toc.ogMaxDecel value="1"/>
        <device.toc.ogChangeRate value="1"/>
    </toc_device>

    <traci_server>
        <remote-port value="50535"/>
    </traci_server>

    <random_number>
        <seed value="1029"/>
    </random_number>

    <gui_only>
        <tracker-interval value="0.1"/>
    </gui_only>

</configuration>
-->

<tripinfos xmlns:xsi="http://www.w3.org/2001/XMLSchema-instance" xsi:noNamespaceSchemaLocation="http://sumo.dlr.de/xsd/tripinfo_file.xsd">
    <tripinfo id="CVToC.0" depart="6.40" departLane="entry_0" departPos="199.90" departSpeed="40.78" departDelay="0.00" arrival="124.40" arrivalLane="e0_0" arrivalPos="4800.00" arrivalSpeed="40.68" duration="118.00" routeLength="4800.10" waitingTime="0.00" waitingCount="0" stopTime="0.00" timeLoss="0.22" rerouteNo="0" devices="tripinfo_CVToC.0 routing_CVToC.0 ssm_CVToC.0 toc_CVToC.0 driverstateCVToC.0" vType="vehLVOS899" speedFactor="1.13" vaporized=""/>
    <tripinfo id="CVToC.1" depart="7.60" departLane="entry_1" departPos="199.90" departSpeed="33.37" departDelay="0.00" arrival="151.70" arrivalLane="e0_1" arrivalPos="4800.00" arrivalSpeed="33.33" duration="144.10" routeLength="4800.10" waitingTime="0.00" waitingCount="0" stopTime="0.00" timeLoss="0.20" rerouteNo="0" devices="tripinfo_CVToC.1 routing_CVToC.1 ssm_CVToC.1 toc_CVToC.1 driverstateCVToC.1" vType="vehLVOS940" speedFactor="0.92" vaporized=""/>
    <tripinfo id="CVToC.2" depart="8.10" departLane="entry_0" departPos="192.80" departSpeed="36.48" departDelay="0.00" arrival="152.30" arrivalLane="e0_0" arrivalPos="4800.00" arrivalSpeed="34.37" duration="144.20" routeLength="4807.20" waitingTime="0.00" waitingCount="0" stopTime="0.00" timeLoss="12.39" rerouteNo="0" devices="tripinfo_CVToC.2 routing_CVToC.2 ssm_CVToC.2 toc_CVToC.2 driverstateCVToC.2" vType="vehLVOS335" speedFactor="1.01" vaporized=""/>
    <tripinfo id="CVToC.3" depart="11.40" departLane="entry_1" departPos="199.90" departSpeed="35.18" departDelay="0.00" arrival="152.60" arrivalLane="e0_1" arrivalPos="4800.00" arrivalSpeed="34.32" duration="141.20" routeLength="4800.10" waitingTime="0.00" waitingCount="0" stopTime="0.00" timeLoss="4.69" rerouteNo="0" devices="tripinfo_CVToC.3 routing_CVToC.3 ssm_CVToC.3 toc_CVToC.3 driverstateCVToC.3" vType="vehLVOS495" speedFactor="0.97" vaporized=""/>
    <tripinfo id="CVToC.4" depart="11.60" departLane="entry_0" departPos="199.90" departSpeed="34.89" departDelay="0.00" arrival="153.20" arrivalLane="e0_0" arrivalPos="4800.00" arrivalSpeed="34.72" duration="141.60" routeLength="4800.10" waitingTime="0.00" waitingCount="0" stopTime="0.00" timeLoss="3.99" rerouteNo="0" devices="tripinfo_CVToC.4 routing_CVToC.4 ssm_CVToC.4 toc_CVToC.4 driverstateCVToC.4" vType="vehLVOS660" speedFactor="0.97" vaporized=""/>
    <tripinfo id="CAVToC.0" depart="11.90" departLane="entry_0" departPos="138.90" departSpeed="35.02" departDelay="0.00" arrival="155.00" arrivalLane="e0_0" arrivalPos="4800.00" arrivalSpeed="35.14" duration="143.10" routeLength="4861.10" waitingTime="0.00" waitingCount="0" stopTime="0.00" timeLoss="4.86" rerouteNo="0" devices="tripinfo_CAVToC.0 routing_CAVToC.0 ssm_CAVToC.0 toc_CAVToC.0 driverstateCAVToC.0" vType="vehLVOS675" speedFactor="0.97" vaporized=""/>
    <tripinfo id="CVToC.5" depart="12.80" departLane="entry_0" departPos="99.57" departSpeed="34.90" departDelay="0.00" arrival="155.60" arrivalLane="e0_1" arrivalPos="4800.00" arrivalSpeed="34.89" duration="142.80" routeLength="4900.43" waitingTime="0.00" waitingCount="0" stopTime="0.00" timeLoss="2.32" rerouteNo="0" devices="tripinfo_CVToC.5 routing_CVToC.5 ssm_CVToC.5 toc_CVToC.5 driverstateCVToC.5" vType="vehLVOS939" speedFactor="0.97" vaporized=""/>
    <tripinfo id="CAVToC.1" depart="14.70" departLane="entry_1" departPos="82.74" departSpeed="35.43" departDelay="0.00" arrival="156.40" arrivalLane="e0_1" arrivalPos="4800.00" arrivalSpeed="35.93" duration="141.70" routeLength="4917.26" waitingTime="0.00" waitingCount="0" stopTime="0.00" timeLoss="16.07" rerouteNo="0" devices="tripinfo_CAVToC.1 routing_CAVToC.1 ssm_CAVToC.1 toc_CAVToC.1 driverstateCAVToC.1" vType="vehLVOS358" speedFactor="1.08" vaporized=""/>
    <tripinfo id="CAVToC.2" depart="15.00" departLane="entry_0" departPos="86.03" departSpeed="35.69" departDelay="0.00" arrival="157.00" arrivalLane="e0_0" arrivalPos="4800.00" arrivalSpeed="36.73" duration="142.00" routeLength="4913.97" waitingTime="0.00" waitingCount="0" stopTime="0.00" timeLoss="23.76" rerouteNo="0" devices="tripinfo_CAVToC.2 routing_CAVToC.2 ssm_CAVToC.2 toc_CAVToC.2 driverstateCAVToC.2" vType="vehLVOS879" speedFactor="1.15" vaporized=""/>
    <tripinfo id="LV.0" depart="17.20" departLane="entry_0" departPos="8.98" departSpeed="43.56" departDelay="0.40" arrival="160.00" arrivalLane="e0_1" arrivalPos="4800.00" arrivalSpeed="43.49" duration="142.80" routeLength="4991.02" waitingTime="0.00" waitingCount="0" stopTime="0.00" timeLoss="28.21" rerouteNo="0" devices="tripinfo_LV.0 routing_LV.0 ssm_LV.0" vType="vehLVOS518" speedFactor="1.21" vaporized=""/>
    <tripinfo id="CAVToC.7" depart="22.00" departLane="entry_1" departPos="6.45" departSpeed="31.13" departDelay="0.10" arrival="161.80" arrivalLane="e0_1" arrivalPos="4800.00" arrivalSpeed="43.44" duration="139.80" routeLength="4993.55" waitingTime="0.00" waitingCount="0" stopTime="0.00" timeLoss="24.83" rerouteNo="0" devices="tripinfo_CAVToC.7 routing_CAVToC.7 ssm_CAVToC.7 toc_CAVToC.7 driverstateCAVToC.7" vType="vehLVOS224" speedFactor="1.20" vaporized=""/>
    <tripinfo id="CAVToC.3" depart="15.60" departLane="entry_1" departPos="39.44" departSpeed="34.09" departDelay="0.00" arrival="163.70" arrivalLane="e0_0" arrivalPos="4800.00" arrivalSpeed="34.07" duration="148.10" routeLength="4960.56" waitingTime="0.00" waitingCount="0" stopTime="0.00" timeLoss="2.58" rerouteNo="0" devices="tripinfo_CAVToC.3 routing_CAVToC.3 ssm_CAVToC.3 toc_CAVToC.3 driverstateCAVToC.3" vType="vehLVOS705" speedFactor="0.94" vaporized=""/>
    <tripinfo id="CAVToC.4" depart="17.20" departLane="entry_1" departPos="26.40" departSpeed="33.23" departDelay="0.00" arrival="167.30" arrivalLane="e0_0" arrivalPos="4800.00" arrivalSpeed="33.20" duration="150.10" routeLength="4973.60" waitingTime="0.00" waitingCount="0" stopTime="0.00" timeLoss="0.36" rerouteNo="0" devices="tripinfo_CAVToC.4 routing_CAVToC.4 ssm_CAVToC.4 toc_CAVToC.4 driverstateCAVToC.4" vType="vehLVOS162" speedFactor="0.92" vaporized=""/>
    <tripinfo id="CAVToC.5" depart="20.90" departLane="entry_1" departPos="68.37" departSpeed="29.71" departDelay="0.00" arrival="174.80" arrivalLane="e0_0" arrivalPos="4800.00" arrivalSpeed="32.51" duration="153.90" routeLength="4931.63" waitingTime="0.00" waitingCount="0" stopTime="0.00" timeLoss="2.30" rerouteNo="0" devices="tripinfo_CAVToC.5 routing_CAVToC.5 ssm_CAVToC.5 toc_CAVToC.5 driverstateCAVToC.5" vType="vehLVOS907" speedFactor="0.90" vaporized=""/>
    <tripinfo id="LV.3" depart="22.80" departLane="entry_0" departPos="4.45" departSpeed="33.01" departDelay="0.20" arrival="180.60" arrivalLane="e0_1" arrivalPos="4800.00" arrivalSpeed="32.99" duration="157.80" routeLength="4995.55" waitingTime="0.00" waitingCount="0" stopTime="0.00" timeLoss="6.37" rerouteNo="0" devices="tripinfo_LV.3 routing_LV.3 ssm_LV.3" vType="vehLVOS870" speedFactor="0.91" vaporized=""/>
    <tripinfo id="CVToC.6" depart="24.10" departLane="entry_1" departPos="1.67" departSpeed="31.20" departDelay="1.00" arrival="180.60" arrivalLane="e0_0" arrivalPos="4800.00" arrivalSpeed="32.38" duration="156.50" routeLength="4998.33" waitingTime="0.00" waitingCount="0" stopTime="0.00" timeLoss="2.33" rerouteNo="0" devices="tripinfo_CVToC.6 routing_CVToC.6 ssm_CVToC.6 toc_CVToC.6 driverstateCVToC.6" vType="vehLVOS168" speedFactor="0.90" vaporized=""/>
    <tripinfo id="CAVToC.8" depart="27.20" departLane="entry_1" departPos="25.78" departSpeed="31.25" departDelay="0.00" arrival="183.70" arrivalLane="e0_0" arrivalPos="4800.00" arrivalSpeed="33.12" duration="156.50" routeLength="4974.22" waitingTime="0.00" waitingCount="0" stopTime="0.00" timeLoss="6.40" rerouteNo="0" devices="tripinfo_CAVToC.8 routing_CAVToC.8 ssm_CAVToC.8 toc_CAVToC.8 driverstateCAVToC.8" vType="vehLVOS471" speedFactor="0.92" vaporized=""/>
    <tripinfo id="CAVToC.9" depart="29.40" departLane="entry_1" departPos="13.79" departSpeed="31.90" departDelay="0.50" arrival="185.30" arrivalLane="e0_1" arrivalPos="4800.00" arrivalSpeed="35.88" duration="155.90" routeLength="4986.21" waitingTime="0.00" waitingCount="0" stopTime="0.00" timeLoss="26.31" rerouteNo="0" devices="tripinfo_CAVToC.9 routing_CAVToC.9 ssm_CAVToC.9 toc_CAVToC.9 driverstateCAVToC.9" vType="vehLVOS750" speedFactor="1.07" vaporized=""/>
    <tripinfo id="LV.2" depart="20.40" departLane="entry_1" departPos="125.15" departSpeed="29.31" departDelay="0.00" arrival="187.10" arrivalLane="e0_0" arrivalPos="4800.00" arrivalSpeed="29.25" duration="166.70" routeLength="4874.85" waitingTime="0.00" waitingCount="0" stopTime="0.00" timeLoss="0.31" rerouteNo="0" devices="tripinfo_LV.2 routing_LV.2 ssm_LV.2" vType="vehLVOS419" speedFactor="0.81" vaporized=""/>
    <tripinfo id="CAVToC.10" depart="33.90" departLane="entry_1" departPos="1.25" departSpeed="30.68" departDelay="4.10" arrival="188.10" arrivalLane="e0_1" arrivalPos="4800.00" arrivalSpeed="38.83" duration="154.20" routeLength="4998.75" waitingTime="0.00" waitingCount="0" stopTime="0.00" timeLoss="25.58" rerouteNo="0" devices="tripinfo_CAVToC.10 routing_CAVToC.10 ssm_CAVToC.10 toc_CAVToC.10 driverstateCAVToC.10" vType="vehLVOS998" speedFactor="1.08" vaporized=""/>
    <tripinfo id="CVToC.11" depart="37.20" departLane="entry_1" departPos="12.25" departSpeed="31.68" departDelay="5.00" arrival="190.90" arrivalLane="e0_1" arrivalPos="4800.00" arrivalSpeed="41.32" duration="153.70" routeLength="4987.75" waitingTime="0.00" waitingCount="0" stopTime="0.00" timeLoss="33.09" rerouteNo="0" devices="tripinfo_CVToC.11 routing_CVToC.11 ssm_CVToC.11 toc_CVToC.11 driverstateCVToC.11" vType="vehLVOS162" speedFactor="1.15" vaporized=""/>
    <tripinfo id="CVToC.13" depart="39.50" departLane="entry_1" departPos="1.38" departSpeed="32.19" departDelay="3.80" arrival="193.00" arrivalLane="e0_1" arrivalPos="4800.00" arrivalSpeed="37.22" duration="153.50" routeLength="4998.62" waitingTime="0.00" waitingCount="0" stopTime="0.00" timeLoss="19.60" rerouteNo="0" devices="tripinfo_CVToC.13 routing_CVToC.13 ssm_CVToC.13 toc_CVToC.13 driverstateCVToC.13" vType="vehLVOS537" speedFactor="1.03" vaporized=""/>
    <tripinfo id="CAVToC.11" depart="31.40" departLane="entry_1" departPos="14.82" departSpeed="29.60" departDelay="0.80" arrival="201.20" arrivalLane="e0_0" arrivalPos="4800.00" arrivalSpeed="29.54" duration="169.80" routeLength="4985.18" waitingTime="0.00" waitingCount="0" stopTime="0.00" timeLoss="1.37" rerouteNo="0" devices="tripinfo_CAVToC.11 routing_CAVToC.11 ssm_CAVToC.11 toc_CAVToC.11 driverstateCAVToC.11" vType="vehLVOS476" speedFactor="0.82" vaporized=""/>
    <tripinfo id="CAVToC.14" depart="44.80" departLane="entry_1" departPos="25.31" departSpeed="30.47" departDelay="8.30" arrival="208.70" arrivalLane="e0_1" arrivalPos="4800.00" arrivalSpeed="34.95" duration="163.90" routeLength="4974.69" waitingTime="0.00" waitingCount="0" stopTime="0.00" timeLoss="21.46" rerouteNo="0" devices="tripinfo_CAVToC.14 routing_CAVToC.14 ssm_CAVToC.14 toc_CAVToC.14 driverstateCAVToC.14" vType="vehLVOS903" speedFactor="0.97" vaporized=""/>
    <tripinfo id="CVToC.16" depart="47.20" departLane="entry_1" departPos="25.07" departSpeed="30.65" departDelay="6.80" arrival="209.90" arrivalLane="e0_1" arrivalPos="4800.00" arrivalSpeed="33.79" duration="162.70" routeLength="4974.93" waitingTime="0.00" waitingCount="0" stopTime="0.00" timeLoss="15.77" rerouteNo="0" devices="tripinfo_CVToC.16 routing_CVToC.16 ssm_CVToC.16 toc_CVToC.16 driverstateCVToC.16" vType="vehLVOS319" speedFactor="0.94" vaporized=""/>
    <tripinfo id="CAVToC.15" depart="41.80" departLane="entry_1" departPos="13.61" departSpeed="29.84" departDelay="3.80" arrival="210.10" arrivalLane="e0_0" arrivalPos="4800.00" arrivalSpeed="29.81" duration="168.30" routeLength="4986.39" waitingTime="0.00" waitingCount="0" stopTime="0.00" timeLoss="1.20" rerouteNo="0" devices="tripinfo_CAVToC.15 routing_CAVToC.15 ssm_CAVToC.15 toc_CAVToC.15 driverstateCAVToC.15" vType="vehLVOS676" speedFactor="0.83" vaporized=""/>
    <tripinfo id="CVToC.18" depart="49.20" departLane="entry_1" departPos="11.40" departSpeed="30.69" departDelay="5.90" arrival="212.90" arrivalLane="e0_1" arrivalPos="4800.00" arrivalSpeed="34.59" duration="163.70" routeLength="4988.60" waitingTime="0.00" waitingCount="0" stopTime="0.00" timeLoss="19.40" rerouteNo="0" devices="tripinfo_CVToC.18 routing_CVToC.18 ssm_CVToC.18 toc_CVToC.18 driverstateCVToC.18" vType="vehLVOS265" speedFactor="0.96" vaporized=""/>
    <tripinfo id="CVToC.21" depart="52.40" departLane="entry_1" departPos="34.79" departSpeed="30.34" departDelay="3.20" arrival="214.00" arrivalLane="e0_1" arrivalPos="4800.00" arrivalSpeed="34.49" duration="161.60" routeLength="4965.21" waitingTime="0.00" waitingCount="0" stopTime="0.00" timeLoss="17.59" rerouteNo="0" devices="tripinfo_CVToC.21 routing_CVToC.21 ssm_CVToC.21 toc_CVToC.21 driverstateCVToC.21" vType="vehLVOS432" speedFactor="0.96" vaporized=""/>
    <tripinfo id="LV.1" depart="18.90" departLane="entry_0" departPos="71.16" departSpeed="25.27" departDelay="0.00" arrival="214.30" arrivalLane="e0_0" arrivalPos="4800.00" arrivalSpeed="25.24" duration="195.40" routeLength="4928.84" waitingTime="0.00" waitingCount="0" stopTime="0.00" timeLoss="0.32" rerouteNo="0" devices="tripinfo_LV.1 routing_LV.1 ssm_LV.1" vType="vehLVOS909" speedFactor="0.70" vaporized=""/>
    <tripinfo id="CVToC.20" depart="54.00" departLane="entry_1" departPos="4.48" departSpeed="30.84" departDelay="7.00" arrival="215.70" arrivalLane="e0_1" arrivalPos="4800.00" arrivalSpeed="36.59" duration="161.70" routeLength="4995.52" waitingTime="0.00" waitingCount="0" stopTime="0.00" timeLoss="25.16" rerouteNo="0" devices="tripinfo_CVToC.20 routing_CVToC.20 ssm_CVToC.20 toc_CVToC.20 driverstateCVToC.20" vType="vehLVOS82" speedFactor="1.01" vaporized=""/>
    <tripinfo id="CAVToC.6" depart="21.70" departLane="entry_0" departPos="52.53" departSpeed="26.77" departDelay="0.00" arrival="216.50" arrivalLane="e0_0" arrivalPos="4800.00" arrivalSpeed="29.79" duration="194.80" routeLength="4947.47" waitingTime="0.00" waitingCount="0" stopTime="0.00" timeLoss="67.94" rerouteNo="0" devices="tripinfo_CAVToC.6 routing_CAVToC.6 ssm_CAVToC.6 toc_CAVToC.6 driverstateCAVToC.6" vType="vehLVOS533" speedFactor="1.08" vaporized=""/>
    <tripinfo id="CVToC.22" depart="56.70" departLane="entry_1" departPos="0.22" departSpeed="31.74" departDelay="5.10" arrival="218.30" arrivalLane="e0_1" arrivalPos="4800.00" arrivalSpeed="38.26" duration="161.60" routeLength="4999.78" waitingTime="0.00" waitingCount="0" stopTime="0.00" timeLoss="42.49" rerouteNo="0" devices="tripinfo_CVToC.22 routing_CVToC.22 ssm_CVToC.22 toc_CVToC.22 driverstateCVToC.22" vType="vehLVOS804" speedFactor="1.16" vaporized=""/>
    <tripinfo id="CVToC.7" depart="25.60" departLane="entry_0" departPos="6.70" departSpeed="31.92" departDelay="1.10" arrival="218.60" arrivalLane="e0_0" arrivalPos="4800.00" arrivalSpeed="30.91" duration="193.00" routeLength="4993.30" waitingTime="0.00" waitingCount="0" stopTime="0.00" timeLoss="71.55" rerouteNo="0" devices="tripinfo_CVToC.7 routing_CVToC.7 ssm_CVToC.7 toc_CVToC.7 driverstateCVToC.7" vType="vehLVOS534" speedFactor="1.14" vaporized=""/>
    <tripinfo id="CVToC.8" depart="28.10" departLane="entry_0" departPos="0.66" departSpeed="29.08" departDelay="0.40" arrival="220.00" arrivalLane="e0_0" arrivalPos="4800.00" arrivalSpeed="32.03" duration="191.90" routeLength="4999.34" waitingTime="0.00" waitingCount="0" stopTime="0.00" timeLoss="56.46" rerouteNo="0" devices="tripinfo_CVToC.8 routing_CVToC.8 ssm_CVToC.8 toc_CVToC.8 driverstateCVToC.8" vType="vehLVOS255" speedFactor="1.02" vaporized=""/>
    <tripinfo id="CVToC.23" depart="59.70" departLane="entry_1" departPos="9.10" departSpeed="32.39" departDelay="6.20" arrival="220.00" arrivalLane="e0_1" arrivalPos="4800.00" arrivalSpeed="38.19" duration="160.30" routeLength="4990.90" waitingTime="0.00" waitingCount="0" stopTime="0.00" timeLoss="29.95" rerouteNo="0" devices="tripinfo_CVToC.23 routing_CVToC.23 ssm_CVToC.23 toc_CVToC.23 driverstateCVToC.23" vType="vehLVOS940" speedFactor="1.06" vaporized=""/>
    <tripinfo id="CVToC.9" depart="30.90" departLane="entry_0" departPos="4.92" departSpeed="28.42" departDelay="1.50" arrival="221.90" arrivalLane="e0_0" arrivalPos="4800.00" arrivalSpeed="33.85" duration="191.00" routeLength="4995.08" waitingTime="0.00" waitingCount="0" stopTime="0.00" timeLoss="43.35" rerouteNo="0" devices="tripinfo_CVToC.9 routing_CVToC.9 ssm_CVToC.9 toc_CVToC.9 driverstateCVToC.9" vType="vehLVOS158" speedFactor="0.94" vaporized=""/>
    <tripinfo id="CVToC.10" depart="33.50" departLane="entry_0" departPos="11.57" departSpeed="28.95" departDelay="2.70" arrival="223.70" arrivalLane="e0_0" arrivalPos="4800.00" arrivalSpeed="30.07" duration="190.20" routeLength="4988.43" waitingTime="0.00" waitingCount="0" stopTime="0.00" timeLoss="24.25" rerouteNo="0" devices="tripinfo_CVToC.10 routing_CVToC.10 ssm_CVToC.10 toc_CVToC.10 driverstateCVToC.10" vType="vehLVOS735" speedFactor="0.83" vaporized=""/>
    <tripinfo id="CVToC.17" depart="50.00" departLane="entry_0" departPos="3.15" departSpeed="27.69" departDelay="8.10" arrival="223.70" arrivalLane="e0_1" arrivalPos="4800.00" arrivalSpeed="38.28" duration="173.70" routeLength="4996.85" waitingTime="0.00" waitingCount="0" stopTime="0.00" timeLoss="43.37" rerouteNo="0" devices="tripinfo_CVToC.17 routing_CVToC.17 ssm_CVToC.17 toc_CVToC.17 driverstateCVToC.17" vType="vehLVOS265" speedFactor="1.06" vaporized=""/>
    <tripinfo id="LV.6" depart="66.20" departLane="entry_1" departPos="0.71" departSpeed="41.50" departDelay="10.50" arrival="224.60" arrivalLane="e0_1" arrivalPos="4800.00" arrivalSpeed="40.54" duration="158.40" routeLength="4999.29" waitingTime="0.00" waitingCount="0" stopTime="0.00" timeLoss="37.91" rerouteNo="0" devices="tripinfo_LV.6 routing_LV.6 ssm_LV.6" vType="vehLVOS507" speedFactor="1.15" vaporized=""/>
    <tripinfo id="LV.5" depart="67.60" departLane="entry_1" departPos="3.38" departSpeed="41.37" departDelay="33.80" arrival="225.80" arrivalLane="e0_1" arrivalPos="4800.00" arrivalSpeed="40.94" duration="158.20" routeLength="4996.62" waitingTime="0.00" waitingCount="0" stopTime="0.00" timeLoss="37.36" rerouteNo="0" devices="tripinfo_LV.5 routing_LV.5 ssm_LV.5" vType="vehLVOS315" speedFactor="1.15" vaporized=""/>
    <tripinfo id="CAVToC.12" depart="36.50" departLane="entry_0" departPos="15.12" departSpeed="30.43" departDelay="4.10" arrival="227.20" arrivalLane="e0_0" arrivalPos="4800.00" arrivalSpeed="38.88" duration="190.70" routeLength="4984.88" waitingTime="0.00" waitingCount="0" stopTime="0.00" timeLoss="63.99" rerouteNo="0" devices="tripinfo_CAVToC.12 routing_CAVToC.12 ssm_CAVToC.12 toc_CAVToC.12 driverstateCAVToC.12" vType="vehLVOS472" speedFactor="1.09" vaporized=""/>
    <tripinfo id="CVToC.12" depart="38.60" departLane="entry_0" departPos="1.59" departSpeed="30.59" departDelay="4.40" arrival="228.40" arrivalLane="e0_0" arrivalPos="4800.00" arrivalSpeed="35.62" duration="189.80" routeLength="4998.41" waitingTime="0.00" waitingCount="0" stopTime="0.00" timeLoss="49.49" rerouteNo="0" devices="tripinfo_CVToC.12 routing_CVToC.12 ssm_CVToC.12 toc_CVToC.12 driverstateCVToC.12" vType="vehLVOS297" speedFactor="0.99" vaporized=""/>
    <tripinfo id="CVToC.25" depart="69.70" departLane="entry_1" departPos="12.67" departSpeed="36.25" departDelay="3.90" arrival="228.60" arrivalLane="e0_1" arrivalPos="4800.00" arrivalSpeed="36.23" duration="158.90" routeLength="4987.33" waitingTime="0.00" waitingCount="0" stopTime="0.00" timeLoss="21.31" rerouteNo="0" devices="tripinfo_CVToC.25 routing_CVToC.25 ssm_CVToC.25 toc_CVToC.25 driverstateCVToC.25" vType="vehLVOS494" speedFactor="1.00" vaporized=""/>
    <tripinfo id="CVToC.26" depart="72.60" departLane="entry_1" departPos="19.71" departSpeed="37.22" departDelay="5.70" arrival="229.70" arrivalLane="e0_1" arrivalPos="4800.00" arrivalSpeed="38.16" duration="157.10" routeLength="4980.29" waitingTime="0.00" waitingCount="0" stopTime="0.00" timeLoss="47.84" rerouteNo="0" devices="tripinfo_CVToC.26 routing_CVToC.26 ssm_CVToC.26 toc_CVToC.26 driverstateCVToC.26" vType="vehLVOS525" speedFactor="1.26" vaporized=""/>
    <tripinfo id="CAVToC.16" depart="55.90" departLane="entry_0" departPos="5.21" departSpeed="28.40" departDelay="6.80" arrival="230.70" arrivalLane="e0_0" arrivalPos="4800.00" arrivalSpeed="34.10" duration="174.80" routeLength="4994.79" waitingTime="0.00" waitingCount="0" stopTime="0.00" timeLoss="29.49" rerouteNo="0" devices="tripinfo_CAVToC.16 routing_CAVToC.16 ssm_CAVToC.16 toc_CAVToC.16 driverstateCAVToC.16" vType="vehLVOS137" speedFactor="0.95" vaporized=""/>
    <tripinfo id="CVToC.14" depart="43.80" departLane="entry_0" departPos="6.84" departSpeed="25.69" departDelay="4.90" arrival="232.20" arrivalLane="e0_0" arrivalPos="4800.00" arrivalSpeed="36.02" duration="188.40" routeLength="4993.16" waitingTime="0.00" waitingCount="0" stopTime="0.00" timeLoss="49.81" rerouteNo="0" devices="tripinfo_CVToC.14 routing_CVToC.14 ssm_CVToC.14 toc_CVToC.14 driverstateCVToC.14" vType="vehLVOS706" speedFactor="1.00" vaporized=""/>
    <tripinfo id="LV.4" depart="72.90" departLane="entry_1" departPos="5.76" departSpeed="36.28" departDelay="42.20" arrival="233.70" arrivalLane="e0_1" arrivalPos="4800.00" arrivalSpeed="36.21" duration="160.80" routeLength="4994.24" waitingTime="0.00" waitingCount="0" stopTime="0.00" timeLoss="23.14" rerouteNo="0" devices="tripinfo_LV.4 routing_LV.4 ssm_LV.4" vType="vehLVOS504" speedFactor="1.00" vaporized=""/>
    <tripinfo id="CVToC.24" depart="68.50" departLane="entry_0" departPos="2.31" departSpeed="28.05" departDelay="9.00" arrival="236.00" arrivalLane="e0_1" arrivalPos="4800.00" arrivalSpeed="38.84" duration="167.50" routeLength="4997.69" waitingTime="0.00" waitingCount="0" stopTime="0.00" timeLoss="38.91" rerouteNo="0" devices="tripinfo_CVToC.24 routing_CVToC.24 ssm_CVToC.24 toc_CVToC.24 driverstateCVToC.24" vType="vehLVOS309" speedFactor="1.08" vaporized=""/>
    <tripinfo id="CAVToC.18" depart="61.60" departLane="entry_1" departPos="11.87" departSpeed="28.60" departDelay="4.90" arrival="236.60" arrivalLane="e0_0" arrivalPos="4800.00" arrivalSpeed="28.47" duration="175.00" routeLength="4988.13" waitingTime="0.00" waitingCount="0" stopTime="0.00" timeLoss="0.55" rerouteNo="0" devices="tripinfo_CAVToC.18 routing_CAVToC.18 ssm_CAVToC.18 toc_CAVToC.18 driverstateCAVToC.18" vType="vehLVOS333" speedFactor="0.79" vaporized=""/>
    <tripinfo id="CAVToC.22" depart="75.30" departLane="entry_1" departPos="2.65" departSpeed="36.21" departDelay="4.50" arrival="237.00" arrivalLane="e0_1" arrivalPos="4800.00" arrivalSpeed="39.72" duration="161.70" routeLength="4997.35" waitingTime="0.00" waitingCount="0" stopTime="0.00" timeLoss="39.66" rerouteNo="0" devices="tripinfo_CAVToC.22 routing_CAVToC.22 ssm_CAVToC.22 toc_CAVToC.22 driverstateCAVToC.22" vType="vehLVOS889" speedFactor="1.13" vaporized=""/>
    <tripinfo id="CVToC.27" depart="74.50" departLane="entry_0" departPos="3.01" departSpeed="29.46" departDelay="0.90" arrival="238.60" arrivalLane="e0_1" arrivalPos="4800.00" arrivalSpeed="34.88" duration="164.10" routeLength="4996.99" waitingTime="0.00" waitingCount="0" stopTime="0.00" timeLoss="21.09" rerouteNo="0" devices="tripinfo_CVToC.27 routing_CVToC.27 ssm_CVToC.27 toc_CVToC.27 driverstateCVToC.27" vType="vehLVOS969" speedFactor="0.97" vaporized=""/>
    <tripinfo id="CAVToC.24" depart="77.40" departLane="entry_1" departPos="1.01" departSpeed="35.93" departDelay="3.80" arrival="241.60" arrivalLane="e0_1" arrivalPos="4800.00" arrivalSpeed="36.57" duration="164.20" routeLength="4998.99" waitingTime="0.00" waitingCount="0" stopTime="0.00" timeLoss="27.57" rerouteNo="0" devices="tripinfo_CAVToC.24 routing_CAVToC.24 ssm_CAVToC.24 toc_CAVToC.24 driverstateCAVToC.24" vType="vehLVOS217" speedFactor="1.01" vaporized=""/>
    <tripinfo id="CAVToC.27" depart="80.40" departLane="entry_1" departPos="29.02" departSpeed="35.41" departDelay="3.80" arrival="242.90" arrivalLane="e0_1" arrivalPos="4800.00" arrivalSpeed="35.64" duration="162.50" routeLength="4970.98" waitingTime="0.00" waitingCount="0" stopTime="0.00" timeLoss="23.16" rerouteNo="0" devices="tripinfo_CAVToC.27 routing_CAVToC.27 ssm_CAVToC.27 toc_CAVToC.27 driverstateCAVToC.27" vType="vehLVOS44" speedFactor="0.99" vaporized=""/>
    <tripinfo id="CAVToC.13" depart="40.40" departLane="entry_0" departPos="1.70" departSpeed="24.43" departDelay="4.00" arrival="246.50" arrivalLane="e0_0" arrivalPos="4800.00" arrivalSpeed="24.38" duration="206.10" routeLength="4998.30" waitingTime="0.00" waitingCount="0" stopTime="0.00" timeLoss="1.50" rerouteNo="0" devices="tripinfo_CAVToC.13 routing_CAVToC.13 ssm_CAVToC.13 toc_CAVToC.13 driverstateCAVToC.13" vType="vehLVOS253" speedFactor="0.68" vaporized=""/>
    <tripinfo id="CAVToC.26" depart="82.10" departLane="entry_1" departPos="16.28" departSpeed="33.29" departDelay="6.00" arrival="247.50" arrivalLane="e0_1" arrivalPos="4800.00" arrivalSpeed="33.29" duration="165.40" routeLength="4983.72" waitingTime="0.00" waitingCount="0" stopTime="0.00" timeLoss="15.67" rerouteNo="0" devices="tripinfo_CAVToC.26 routing_CAVToC.26 ssm_CAVToC.26 toc_CAVToC.26 driverstateCAVToC.26" vType="vehLVOS636" speedFactor="0.92" vaporized=""/>
    <tripinfo id="CVToC.15" depart="46.90" departLane="entry_0" departPos="6.53" departSpeed="26.64" departDelay="7.70" arrival="247.70" arrivalLane="e0_0" arrivalPos="4800.00" arrivalSpeed="27.63" duration="200.80" routeLength="4993.47" waitingTime="0.00" waitingCount="0" stopTime="0.00" timeLoss="61.70" rerouteNo="0" devices="tripinfo_CVToC.15 routing_CVToC.15 ssm_CVToC.15 toc_CVToC.15 driverstateCVToC.15" vType="vehLVOS96" speedFactor="0.99" vaporized=""/>
    <tripinfo id="LV.10" depart="85.40" departLane="entry_1" departPos="6.72" departSpeed="38.73" departDelay="8.40" arrival="249.00" arrivalLane="e0_1" arrivalPos="4800.00" arrivalSpeed="35.74" duration="163.60" routeLength="4993.28" waitingTime="0.00" waitingCount="0" stopTime="0.00" timeLoss="34.62" rerouteNo="0" devices="tripinfo_LV.10 routing_LV.10 ssm_LV.10" vType="vehLVOS429" speedFactor="1.07" vaporized=""/>
    <tripinfo id="CVToC.19" depart="53.00" departLane="entry_0" departPos="1.47" departSpeed="27.99" departDelay="7.00" arrival="251.30" arrivalLane="e0_0" arrivalPos="4800.00" arrivalSpeed="29.90" duration="198.30" routeLength="4998.53" waitingTime="0.00" waitingCount="0" stopTime="0.00" timeLoss="62.16" rerouteNo="0" devices="tripinfo_CVToC.19 routing_CVToC.19 ssm_CVToC.19 toc_CVToC.19 driverstateCVToC.19" vType="vehLVOS443" speedFactor="1.02" vaporized=""/>
    <tripinfo id="LV.11" depart="86.30" departLane="entry_1" departPos="33.81" departSpeed="31.84" departDelay="8.20" arrival="252.20" arrivalLane="e0_1" arrivalPos="4800.00" arrivalSpeed="31.83" duration="165.90" routeLength="4966.19" waitingTime="0.00" waitingCount="0" stopTime="0.00" timeLoss="9.85" rerouteNo="0" devices="tripinfo_LV.11 routing_LV.11 ssm_LV.11" vType="vehLVOS194" speedFactor="0.88" vaporized=""/>
    <tripinfo id="CAVToC.17" depart="59.10" departLane="entry_0" departPos="20.38" departSpeed="28.89" departDelay="5.40" arrival="253.20" arrivalLane="e0_0" arrivalPos="4800.00" arrivalSpeed="30.26" duration="194.10" routeLength="4979.62" waitingTime="0.00" waitingCount="0" stopTime="0.00" timeLoss="49.17" rerouteNo="0" devices="tripinfo_CAVToC.17 routing_CAVToC.17 ssm_CAVToC.17 toc_CAVToC.17 driverstateCAVToC.17" vType="vehLVOS557" speedFactor="0.95" vaporized=""/>
    <tripinfo id="CAVToC.30" depart="88.60" departLane="entry_1" departPos="34.86" departSpeed="32.20" departDelay="10.40" arrival="254.90" arrivalLane="e0_1" arrivalPos="4800.00" arrivalSpeed="34.35" duration="166.30" routeLength="4965.14" waitingTime="0.00" waitingCount="0" stopTime="0.00" timeLoss="21.74" rerouteNo="0" devices="tripinfo_CAVToC.30 routing_CAVToC.30 ssm_CAVToC.30 toc_CAVToC.30 driverstateCAVToC.30" vType="vehLVOS531" speedFactor="0.95" vaporized=""/>