<?xml version="1.0" encoding="UTF-8"?>

<!-- generated on Mon Jul 27 11:35:16 2020 by Eclipse SUMO Version v1_6_0+0553-a03471b
<configuration xmlns:xsi="http://www.w3.org/2001/XMLSchema-instance" xsi:noNamespaceSchemaLocation="http://sumo.dlr.de/xsd/sumoConfiguration.xsd">

    <input>
        <net-file value="scenario/UC5_1.net.xml"/>
        <route-files value="scenario/routes_trafficMix_0_trafficDemand_1_driverBehaviour_OS_seed_0.xml"/>
        <additional-files value="scenario/additionalsOutput_trafficMix_0_trafficDemand_1_driverBehaviour_OS_seed_0.xml,scenario/vTypesCAVToC_OS.add.xml,scenario/vTypesCVToC_OS.add.xml,scenario/vTypesLV_OS.add.xml,scenario/shapes.add.xml,scenario/view.add.xml"/>
    </input>

    <output>
        <tripinfo-output value="/home/noul_ar/workspace/tor-distribution/outputs/simulations/bad_test_2.zip_20200727-100032/tripinfo_9.xml"/>
    </output>

    <time>
        <step-length value="0.1"/>
    </time>

    <processing>
        <step-method.ballistic value="true"/>
        <ignore-route-errors value="true"/>
        <lanechange.duration value="2.5"/>
    </processing>

    <report>
        <no-step-log value="true"/>
    </report>

    <toc_device>
        <device.toc.ogNewTimeHeadway value="100"/>
        <device.toc.ogNewSpaceHeadway value="5"/>
        <device.toc.ogMaxDecel value="1"/>
        <device.toc.ogChangeRate value="1"/>
    </toc_device>

    <traci_server>
        <remote-port value="59365"/>
    </traci_server>

    <random_number>
        <seed value="1033"/>
    </random_number>

    <gui_only>
        <tracker-interval value="0.1"/>
    </gui_only>

</configuration>
-->

<tripinfos xmlns:xsi="http://www.w3.org/2001/XMLSchema-instance" xsi:noNamespaceSchemaLocation="http://sumo.dlr.de/xsd/tripinfo_file.xsd">
    <tripinfo id="CAVToC.1" depart="3.70" departLane="entry_1" departPos="199.90" departSpeed="35.60" departDelay="0.00" arrival="130.30" arrivalLane="e0_1" arrivalPos="4800.00" arrivalSpeed="40.46" duration="126.60" routeLength="4800.10" waitingTime="0.00" waitingCount="0" stopTime="0.00" timeLoss="7.99" rerouteNo="0" devices="tripinfo_CAVToC.1 routing_CAVToC.1 ssm_CAVToC.1 toc_CAVToC.1 driverstateCAVToC.1" vType="vehLVOS374" speedFactor="1.12" vaporized=""/>
    <tripinfo id="CAVToC.2" depart="5.00" departLane="entry_1" departPos="153.93" departSpeed="36.31" departDelay="0.00" arrival="131.10" arrivalLane="e0_1" arrivalPos="4800.00" arrivalSpeed="41.31" duration="126.10" routeLength="4846.07" waitingTime="0.00" waitingCount="0" stopTime="0.00" timeLoss="10.95" rerouteNo="0" devices="tripinfo_CAVToC.2 routing_CAVToC.2 ssm_CAVToC.2 toc_CAVToC.2 driverstateCAVToC.2" vType="vehLVOS746" speedFactor="1.17" vaporized=""/>
    <tripinfo id="CVToC.0" depart="0.30" departLane="entry_0" departPos="199.90" departSpeed="36.57" departDelay="0.00" arrival="131.80" arrivalLane="e0_0" arrivalPos="4800.00" arrivalSpeed="36.49" duration="131.50" routeLength="4800.10" waitingTime="0.00" waitingCount="0" stopTime="0.00" timeLoss="0.25" rerouteNo="0" devices="tripinfo_CVToC.0 routing_CVToC.0 ssm_CVToC.0 toc_CVToC.0 driverstateCVToC.0" vType="vehLVOS588" speedFactor="1.01" vaporized=""/>
    <tripinfo id="CAVToC.0" depart="1.10" departLane="entry_1" departPos="199.90" departSpeed="34.84" departDelay="0.00" arrival="139.00" arrivalLane="e0_0" arrivalPos="4800.00" arrivalSpeed="34.83" duration="137.90" routeLength="4800.10" waitingTime="0.00" waitingCount="0" stopTime="0.00" timeLoss="0.10" rerouteNo="0" devices="tripinfo_CAVToC.0 routing_CAVToC.0 ssm_CAVToC.0 toc_CAVToC.0 driverstateCAVToC.0" vType="vehLVOS22" speedFactor="0.96" vaporized=""/>
    <tripinfo id="CVToC.2" depart="5.10" departLane="entry_1" departPos="82.64" departSpeed="36.34" departDelay="0.00" arrival="141.80" arrivalLane="e0_0" arrivalPos="4800.00" arrivalSpeed="36.39" duration="136.70" routeLength="4917.36" waitingTime="0.00" waitingCount="0" stopTime="0.00" timeLoss="1.60" rerouteNo="0" devices="tripinfo_CVToC.2 routing_CVToC.2 ssm_CVToC.2 toc_CVToC.2 driverstateCVToC.2" vType="vehLVOS292" speedFactor="1.01" vaporized=""/>
    <tripinfo id="CVToC.1" depart="2.60" departLane="entry_0" departPos="199.90" departSpeed="34.22" departDelay="0.00" arrival="143.10" arrivalLane="e0_0" arrivalPos="4800.00" arrivalSpeed="34.20" duration="140.50" routeLength="4800.10" waitingTime="0.00" waitingCount="0" stopTime="0.00" timeLoss="0.14" rerouteNo="0" devices="tripinfo_CVToC.1 routing_CVToC.1 ssm_CVToC.1 toc_CVToC.1 driverstateCVToC.1" vType="vehLVOS968" speedFactor="0.95" vaporized=""/>
    <tripinfo id="CAVToC.3" depart="5.40" departLane="entry_1" departPos="7.75" departSpeed="36.47" departDelay="0.00" arrival="145.50" arrivalLane="e0_1" arrivalPos="4800.00" arrivalSpeed="38.91" duration="140.10" routeLength="4992.25" waitingTime="0.00" waitingCount="0" stopTime="0.00" timeLoss="11.73" rerouteNo="0" devices="tripinfo_CAVToC.3 routing_CAVToC.3 ssm_CAVToC.3 toc_CAVToC.3 driverstateCAVToC.3" vType="vehLVOS277" speedFactor="1.08" vaporized=""/>
    <tripinfo id="CAVToC.6" depart="9.60" departLane="entry_1" departPos="83.15" departSpeed="35.80" departDelay="0.00" arrival="148.40" arrivalLane="e0_1" arrivalPos="4800.00" arrivalSpeed="35.74" duration="138.80" routeLength="4916.85" waitingTime="0.00" waitingCount="0" stopTime="0.00" timeLoss="1.46" rerouteNo="0" devices="tripinfo_CAVToC.6 routing_CAVToC.6 ssm_CAVToC.6 toc_CAVToC.6 driverstateCAVToC.6" vType="vehLVOS672" speedFactor="0.99" vaporized=""/>
    <tripinfo id="CVToC.3" depart="6.80" departLane="entry_0" departPos="199.90" departSpeed="33.72" departDelay="0.20" arrival="149.40" arrivalLane="e0_0" arrivalPos="4800.00" arrivalSpeed="33.72" duration="142.60" routeLength="4800.10" waitingTime="0.00" waitingCount="0" stopTime="0.00" timeLoss="0.23" rerouteNo="0" devices="tripinfo_CVToC.3 routing_CVToC.3 ssm_CVToC.3 toc_CVToC.3 driverstateCVToC.3" vType="vehLVOS844" speedFactor="0.93" vaporized=""/>
    <tripinfo id="CAVToC.8" depart="11.90" departLane="entry_1" departPos="72.81" departSpeed="31.02" departDelay="0.00" arrival="149.90" arrivalLane="e0_1" arrivalPos="4800.00" arrivalSpeed="37.57" duration="138.00" routeLength="4927.19" waitingTime="0.00" waitingCount="0" stopTime="0.00" timeLoss="6.83" rerouteNo="0" devices="tripinfo_CAVToC.8 routing_CAVToC.8 ssm_CAVToC.8 toc_CAVToC.8 driverstateCAVToC.8" vType="vehLVOS602" speedFactor="1.04" vaporized=""/>
    <tripinfo id="CAVToC.4" depart="6.90" departLane="entry_0" departPos="112.30" departSpeed="34.77" departDelay="0.00" arrival="151.30" arrivalLane="e0_0" arrivalPos="4800.00" arrivalSpeed="40.14" duration="144.40" routeLength="4887.70" waitingTime="0.00" waitingCount="0" stopTime="0.00" timeLoss="31.73" rerouteNo="0" devices="tripinfo_CAVToC.4 routing_CAVToC.4 ssm_CAVToC.4 toc_CAVToC.4 driverstateCAVToC.4" vType="vehLVOS376" speedFactor="1.20" vaporized=""/>
    <tripinfo id="CAVToC.5" depart="9.20" departLane="entry_0" departPos="121.30" departSpeed="34.77" departDelay="0.00" arrival="152.30" arrivalLane="e0_0" arrivalPos="4800.00" arrivalSpeed="34.95" duration="143.10" routeLength="4878.70" waitingTime="0.00" waitingCount="0" stopTime="0.00" timeLoss="3.66" rerouteNo="0" devices="tripinfo_CAVToC.5 routing_CAVToC.5 ssm_CAVToC.5 toc_CAVToC.5 driverstateCAVToC.5" vType="vehLVOS29" speedFactor="0.97" vaporized=""/>
    <tripinfo id="CAVToC.9" depart="13.60" departLane="entry_1" departPos="26.24" departSpeed="32.39" departDelay="0.00" arrival="153.80" arrivalLane="e0_1" arrivalPos="4800.00" arrivalSpeed="39.96" duration="140.20" routeLength="4973.76" waitingTime="0.00" waitingCount="0" stopTime="0.00" timeLoss="28.34" rerouteNo="0" devices="tripinfo_CAVToC.9 routing_CAVToC.9 ssm_CAVToC.9 toc_CAVToC.9 driverstateCAVToC.9" vType="vehLVOS502" speedFactor="1.23" vaporized=""/>
    <tripinfo id="CVToC.5" depart="16.60" departLane="entry_1" departPos="7.31" departSpeed="29.91" departDelay="0.40" arrival="155.40" arrivalLane="e0_1" arrivalPos="4800.00" arrivalSpeed="40.67" duration="138.80" routeLength="4992.69" waitingTime="0.00" waitingCount="0" stopTime="0.00" timeLoss="16.11" rerouteNo="0" devices="tripinfo_CVToC.5 routing_CVToC.5 ssm_CVToC.5 toc_CVToC.5 driverstateCVToC.5" vType="vehLVOS703" speedFactor="1.13" vaporized=""/>
    <tripinfo id="CVToC.7" depart="20.40" departLane="entry_1" departPos="36.44" departSpeed="30.84" departDelay="2.00" arrival="157.30" arrivalLane="e0_1" arrivalPos="4800.00" arrivalSpeed="40.36" duration="136.90" routeLength="4963.56" waitingTime="0.00" waitingCount="0" stopTime="0.00" timeLoss="14.01" rerouteNo="0" devices="tripinfo_CVToC.7 routing_CVToC.7 ssm_CVToC.7 toc_CVToC.7 driverstateCVToC.7" vType="vehLVOS74" speedFactor="1.12" vaporized=""/>
    <tripinfo id="LV.1" depart="12.20" departLane="entry_0" departPos="5.24" departSpeed="35.19" departDelay="0.00" arrival="158.90" arrivalLane="e0_0" arrivalPos="4800.00" arrivalSpeed="35.05" duration="146.70" routeLength="4994.76" waitingTime="0.00" waitingCount="0" stopTime="0.00" timeLoss="4.71" rerouteNo="0" devices="tripinfo_LV.1 routing_LV.1 ssm_LV.1" vType="vehLVOS439" speedFactor="0.97" vaporized=""/>
    <tripinfo id="CAVToC.12" depart="22.30" departLane="entry_1" departPos="16.71" departSpeed="31.24" departDelay="0.00" arrival="167.00" arrivalLane="e0_0" arrivalPos="4800.00" arrivalSpeed="34.88" duration="144.70" routeLength="4983.29" waitingTime="0.00" waitingCount="0" stopTime="0.00" timeLoss="2.15" rerouteNo="0" devices="tripinfo_CAVToC.12 routing_CAVToC.12 ssm_CAVToC.12 toc_CAVToC.12 driverstateCAVToC.12" vType="vehLVOS29" speedFactor="0.97" vaporized=""/>
    <tripinfo id="CVToC.6" depart="17.30" departLane="entry_0" departPos="0.10" departSpeed="26.90" departDelay="0.00" arrival="169.50" arrivalLane="e0_1" arrivalPos="4800.00" arrivalSpeed="35.11" duration="152.20" routeLength="4999.90" waitingTime="0.00" waitingCount="0" stopTime="0.00" timeLoss="9.96" rerouteNo="0" devices="tripinfo_CVToC.6 routing_CVToC.6 ssm_CVToC.6 toc_CVToC.6 driverstateCVToC.6" vType="vehLVOS52" speedFactor="0.97" vaporized=""/>
    <tripinfo id="CAVToC.10" depart="14.60" departLane="entry_0" departPos="0.90" departSpeed="32.31" departDelay="0.50" arrival="170.90" arrivalLane="e0_1" arrivalPos="4800.00" arrivalSpeed="36.92" duration="156.30" routeLength="4999.10" waitingTime="0.00" waitingCount="0" stopTime="0.00" timeLoss="25.48" rerouteNo="0" devices="tripinfo_CAVToC.10 routing_CAVToC.10 ssm_CAVToC.10 toc_CAVToC.10 driverstateCAVToC.10" vType="vehLVOS280" speedFactor="1.06" vaporized=""/>
    <tripinfo id="LV.5" depart="27.00" departLane="entry_0" departPos="23.23" departSpeed="41.55" departDelay="3.10" arrival="172.30" arrivalLane="e0_1" arrivalPos="4800.00" arrivalSpeed="38.01" duration="145.30" routeLength="4976.77" waitingTime="0.00" waitingCount="0" stopTime="0.00" timeLoss="25.50" rerouteNo="0" devices="tripinfo_LV.5 routing_LV.5 ssm_LV.5" vType="vehLVOS788" speedFactor="1.15" vaporized=""/>
    <tripinfo id="LV.0" depart="10.90" departLane="entry_1" departPos="122.09" departSpeed="30.25" departDelay="0.00" arrival="172.80" arrivalLane="e0_0" arrivalPos="4800.00" arrivalSpeed="30.15" duration="161.90" routeLength="4877.91" waitingTime="0.00" waitingCount="0" stopTime="0.00" timeLoss="0.63" rerouteNo="0" devices="tripinfo_LV.0 routing_LV.0 ssm_LV.0" vType="vehLVOS145" speedFactor="0.84" vaporized=""/>
    <tripinfo id="CVToC.4" depart="9.50" departLane="entry_0" departPos="51.63" departSpeed="35.18" departDelay="0.00" arrival="173.80" arrivalLane="e0_0" arrivalPos="4800.00" arrivalSpeed="31.62" duration="164.30" routeLength="4948.37" waitingTime="0.00" waitingCount="0" stopTime="0.00" timeLoss="34.28" rerouteNo="0" devices="tripinfo_CVToC.4 routing_CVToC.4 ssm_CVToC.4 toc_CVToC.4 driverstateCVToC.4" vType="vehLVOS777" speedFactor="1.05" vaporized=""/>
    <tripinfo id="CAVToC.7" depart="11.20" departLane="entry_0" departPos="34.29" departSpeed="34.51" departDelay="0.00" arrival="175.30" arrivalLane="e0_1" arrivalPos="4800.00" arrivalSpeed="35.49" duration="164.10" routeLength="4965.71" waitingTime="0.00" waitingCount="0" stopTime="0.00" timeLoss="24.41" rerouteNo="0" devices="tripinfo_CAVToC.7 routing_CAVToC.7 ssm_CAVToC.7 toc_CAVToC.7 driverstateCAVToC.7" vType="vehLVOS198" speedFactor="0.98" vaporized=""/>
    <tripinfo id="CAVToC.11" depart="20.80" departLane="entry_0" departPos="23.82" departSpeed="26.45" departDelay="1.00" arrival="187.00" arrivalLane="e0_1" arrivalPos="4800.00" arrivalSpeed="31.40" duration="166.20" routeLength="4976.18" waitingTime="0.00" waitingCount="0" stopTime="0.00" timeLoss="7.83" rerouteNo="0" devices="tripinfo_CAVToC.11 routing_CAVToC.11 ssm_CAVToC.11 toc_CAVToC.11 driverstateCAVToC.11" vType="vehLVOS508" speedFactor="0.87" vaporized=""/>
    <tripinfo id="LV.2" depart="14.70" departLane="entry_1" departPos="42.72" departSpeed="28.65" departDelay="0.10" arrival="188.20" arrivalLane="e0_0" arrivalPos="4800.00" arrivalSpeed="28.60" duration="173.50" routeLength="4957.28" waitingTime="0.00" waitingCount="0" stopTime="0.00" timeLoss="0.44" rerouteNo="0" devices="tripinfo_LV.2 routing_LV.2 ssm_LV.2" vType="vehLVOS14" speedFactor="0.79" vaporized=""/>
    <tripinfo id="LV.6" depart="30.20" departLane="entry_1" departPos="6.15" departSpeed="36.01" departDelay="0.80" arrival="188.60" arrivalLane="e0_1" arrivalPos="4800.00" arrivalSpeed="34.55" duration="158.40" routeLength="4993.85" waitingTime="0.00" waitingCount="0" stopTime="0.00" timeLoss="19.64" rerouteNo="0" devices="tripinfo_LV.6 routing_LV.6 ssm_LV.6" vType="vehLVOS339" speedFactor="1.00" vaporized=""/>
    <tripinfo id="CAVToC.14" depart="28.00" departLane="entry_1" departPos="52.46" departSpeed="29.74" departDelay="0.40" arrival="189.40" arrivalLane="e0_0" arrivalPos="4800.00" arrivalSpeed="31.69" duration="161.40" routeLength="4947.54" waitingTime="0.00" waitingCount="0" stopTime="0.00" timeLoss="8.97" rerouteNo="0" devices="tripinfo_CAVToC.14 routing_CAVToC.14 ssm_CAVToC.14 toc_CAVToC.14 driverstateCAVToC.14" vType="vehLVOS422" speedFactor="0.90" vaporized=""/>
    <tripinfo id="CVToC.8" depart="33.10" departLane="entry_1" departPos="8.14" departSpeed="35.73" departDelay="0.50" arrival="190.00" arrivalLane="e0_1" arrivalPos="4800.00" arrivalSpeed="33.87" duration="156.90" routeLength="4991.86" waitingTime="0.00" waitingCount="0" stopTime="0.00" timeLoss="48.72" rerouteNo="0" devices="tripinfo_CVToC.8 routing_CVToC.8 ssm_CVToC.8 toc_CVToC.8 driverstateCVToC.8" vType="vehLVOS738" speedFactor="1.28" vaporized=""/>
    <tripinfo id="CAVToC.17" depart="35.40" departLane="entry_1" departPos="13.81" departSpeed="35.25" departDelay="2.60" arrival="191.60" arrivalLane="e0_1" arrivalPos="4800.00" arrivalSpeed="35.84" duration="156.20" routeLength="4986.19" waitingTime="0.00" waitingCount="0" stopTime="0.00" timeLoss="16.99" rerouteNo="0" devices="tripinfo_CAVToC.17 routing_CAVToC.17 ssm_CAVToC.17 toc_CAVToC.17 driverstateCAVToC.17" vType="vehLVOS298" speedFactor="0.99" vaporized=""/>
    <tripinfo id="CAVToC.18" depart="33.90" departLane="entry_0" departPos="10.93" departSpeed="31.23" departDelay="0.70" arrival="192.60" arrivalLane="e0_1" arrivalPos="4800.00" arrivalSpeed="35.21" duration="158.70" routeLength="4989.07" waitingTime="0.00" waitingCount="0" stopTime="0.00" timeLoss="34.94" rerouteNo="0" devices="tripinfo_CAVToC.18 routing_CAVToC.18 ssm_CAVToC.18 toc_CAVToC.18 driverstateCAVToC.18" vType="vehLVOS996" speedFactor="1.12" vaporized=""/>
    <tripinfo id="CVToC.9" depart="36.50" departLane="entry_0" departPos="13.61" departSpeed="31.51" departDelay="1.70" arrival="194.10" arrivalLane="e0_1" arrivalPos="4800.00" arrivalSpeed="34.80" duration="157.60" routeLength="4986.39" waitingTime="0.00" waitingCount="0" stopTime="0.00" timeLoss="14.25" rerouteNo="0" devices="tripinfo_CVToC.9 routing_CVToC.9 ssm_CVToC.9 toc_CVToC.9 driverstateCVToC.9" vType="vehLVOS844" speedFactor="0.96" vaporized=""/>
    <tripinfo id="CAVToC.13" depart="24.80" departLane="entry_1" departPos="30.19" departSpeed="29.31" departDelay="1.00" arrival="194.40" arrivalLane="e0_0" arrivalPos="4800.00" arrivalSpeed="29.29" duration="169.60" routeLength="4969.81" waitingTime="0.00" waitingCount="0" stopTime="0.00" timeLoss="0.07" rerouteNo="0" devices="tripinfo_CAVToC.13 routing_CAVToC.13 ssm_CAVToC.13 toc_CAVToC.13 driverstateCAVToC.13" vType="vehLVOS123" speedFactor="0.81" vaporized=""/>
    <tripinfo id="CAVToC.16" depart="32.40" departLane="entry_0" departPos="51.88" departSpeed="30.21" departDelay="0.10" arrival="195.60" arrivalLane="e0_1" arrivalPos="4800.00" arrivalSpeed="34.63" duration="163.20" routeLength="4948.12" waitingTime="0.00" waitingCount="0" stopTime="0.00" timeLoss="20.26" rerouteNo="0" devices="tripinfo_CAVToC.16 routing_CAVToC.16 ssm_CAVToC.16 toc_CAVToC.16 driverstateCAVToC.16" vType="vehLVOS853" speedFactor="0.96" vaporized=""/>
    <tripinfo id="CAVToC.15" depart="28.40" departLane="entry_0" departPos="8.95" departSpeed="31.86" departDelay="0.30" arrival="196.40" arrivalLane="e0_0" arrivalPos="4800.00" arrivalSpeed="31.03" duration="168.00" routeLength="4991.05" waitingTime="0.00" waitingCount="0" stopTime="0.00" timeLoss="11.30" rerouteNo="0" devices="tripinfo_CAVToC.15 routing_CAVToC.15 ssm_CAVToC.15 toc_CAVToC.15 driverstateCAVToC.15" vType="vehLVOS452" speedFactor="0.88" vaporized=""/>
    <tripinfo id="CAVToC.19" depart="37.00" departLane="entry_1" departPos="13.16" departSpeed="28.23" departDelay="0.80" arrival="214.20" arrivalLane="e0_1" arrivalPos="4800.00" arrivalSpeed="28.17" duration="177.20" routeLength="4986.84" waitingTime="0.00" waitingCount="0" stopTime="0.00" timeLoss="0.52" rerouteNo="0" devices="tripinfo_CAVToC.19 routing_CAVToC.19 ssm_CAVToC.19 toc_CAVToC.19 driverstateCAVToC.19" vType="vehLVOS565" speedFactor="0.78" vaporized=""/>
    <tripinfo id="CVToC.10" depart="39.40" departLane="entry_0" departPos="25.88" departSpeed="31.90" departDelay="0.20" arrival="215.90" arrivalLane="e0_0" arrivalPos="4800.00" arrivalSpeed="30.25" duration="176.50" routeLength="4974.12" waitingTime="0.00" waitingCount="0" stopTime="0.00" timeLoss="41.13" rerouteNo="0" devices="tripinfo_CVToC.10 routing_CVToC.10 ssm_CVToC.10 toc_CVToC.10 driverstateCVToC.10" vType="vehLVOS837" speedFactor="1.02" vaporized=""/>
    <tripinfo id="CAVToC.21" depart="41.90" departLane="entry_1" departPos="65.98" departSpeed="29.37" departDelay="1.90" arrival="215.90" arrivalLane="e0_1" arrivalPos="4800.00" arrivalSpeed="30.63" duration="174.00" routeLength="4934.02" waitingTime="0.00" waitingCount="0" stopTime="0.00" timeLoss="44.82" rerouteNo="0" devices="tripinfo_CAVToC.21 routing_CAVToC.21 ssm_CAVToC.21 toc_CAVToC.21 driverstateCAVToC.21" vType="vehLVOS951" speedFactor="1.06" vaporized=""/>
    <tripinfo id="CVToC.11" depart="42.60" departLane="entry_1" departPos="7.74" departSpeed="30.25" departDelay="1.10" arrival="217.70" arrivalLane="e0_1" arrivalPos="4800.00" arrivalSpeed="31.57" duration="175.10" routeLength="4992.26" waitingTime="0.00" waitingCount="0" stopTime="0.00" timeLoss="43.37" rerouteNo="0" devices="tripinfo_CVToC.11 routing_CVToC.11 ssm_CVToC.11 toc_CVToC.11 driverstateCVToC.11" vType="vehLVOS781" speedFactor="1.05" vaporized=""/>
    <tripinfo id="CAVToC.20" depart="41.60" departLane="entry_0" departPos="21.64" departSpeed="28.17" departDelay="2.00" arrival="218.40" arrivalLane="e0_0" arrivalPos="4800.00" arrivalSpeed="32.44" duration="176.80" routeLength="4978.36" waitingTime="0.00" waitingCount="0" stopTime="0.00" timeLoss="23.65" rerouteNo="0" devices="tripinfo_CAVToC.20 routing_CAVToC.20 ssm_CAVToC.20 toc_CAVToC.20 driverstateCAVToC.20" vType="vehLVOS267" speedFactor="0.90" vaporized=""/>
    <tripinfo id="LV.7" depart="46.60" departLane="entry_1" departPos="0.42" departSpeed="41.47" departDelay="4.40" arrival="218.50" arrivalLane="e0_1" arrivalPos="4800.00" arrivalSpeed="31.93" duration="171.90" routeLength="4999.58" waitingTime="0.00" waitingCount="0" stopTime="0.00" timeLoss="51.34" rerouteNo="0" devices="tripinfo_LV.7 routing_LV.7 ssm_LV.7" vType="vehLVOS481" speedFactor="1.15" vaporized=""/>
    <tripinfo id="CVToC.12" depart="47.50" departLane="entry_0" departPos="118.92" departSpeed="28.13" departDelay="2.30" arrival="220.70" arrivalLane="e0_0" arrivalPos="4800.00" arrivalSpeed="28.85" duration="173.20" routeLength="4881.08" waitingTime="0.00" waitingCount="0" stopTime="0.00" timeLoss="4.04" rerouteNo="0" devices="tripinfo_CVToC.12 routing_CVToC.12 ssm_CVToC.12 toc_CVToC.12 driverstateCVToC.12" vType="vehLVOS857" speedFactor="0.80" vaporized=""/>
    <tripinfo id="LV.8" depart="48.20" departLane="entry_1" departPos="12.65" departSpeed="32.88" departDelay="0.10" arrival="221.50" arrivalLane="e0_1" arrivalPos="4800.00" arrivalSpeed="32.86" duration="173.30" routeLength="4987.35" waitingTime="0.00" waitingCount="0" stopTime="0.00" timeLoss="21.57" rerouteNo="0" devices="tripinfo_LV.8 routing_LV.8 ssm_LV.8" vType="vehLVOS256" speedFactor="0.91" vaporized=""/>
    <tripinfo id="CVToC.14" depart="50.20" departLane="entry_1" departPos="7.93" departSpeed="32.49" departDelay="0.70" arrival="222.40" arrivalLane="e0_1" arrivalPos="4800.00" arrivalSpeed="33.83" duration="172.20" routeLength="4992.07" waitingTime="0.00" waitingCount="0" stopTime="0.00" timeLoss="24.58" rerouteNo="0" devices="tripinfo_CVToC.14 routing_CVToC.14 ssm_CVToC.14 toc_CVToC.14 driverstateCVToC.14" vType="vehLVOS966" speedFactor="0.94" vaporized=""/>
    <tripinfo id="CVToC.13" depart="49.40" departLane="entry_0" departPos="5.73" departSpeed="30.27" departDelay="3.30" arrival="223.20" arrivalLane="e0_1" arrivalPos="4800.00" arrivalSpeed="35.06" duration="173.80" routeLength="4994.27" waitingTime="0.00" waitingCount="0" stopTime="0.00" timeLoss="46.89" rerouteNo="0" devices="tripinfo_CVToC.13 routing_CVToC.13 ssm_CVToC.13 toc_CVToC.13 driverstateCVToC.13" vType="vehLVOS78" speedFactor="1.09" vaporized=""/>
    <tripinfo id="CAVToC.22" depart="47.60" departLane="entry_0" departPos="40.30" departSpeed="29.20" departDelay="0.90" arrival="224.10" arrivalLane="e0_0" arrivalPos="4800.00" arrivalSpeed="32.53" duration="176.50" routeLength="4959.70" waitingTime="0.00" waitingCount="0" stopTime="0.00" timeLoss="45.77" rerouteNo="0" devices="tripinfo_CAVToC.22 routing_CAVToC.22 ssm_CAVToC.22 toc_CAVToC.22 driverstateCAVToC.22" vType="vehLVOS699" speedFactor="1.05" vaporized=""/>
    <tripinfo id="CAVToC.23" depart="53.20" departLane="entry_1" departPos="32.71" departSpeed="32.27" departDelay="5.50" arrival="224.20" arrivalLane="e0_1" arrivalPos="4800.00" arrivalSpeed="33.59" duration="171.00" routeLength="4967.29" waitingTime="0.00" waitingCount="0" stopTime="0.00" timeLoss="23.16" rerouteNo="0" devices="tripinfo_CAVToC.23 routing_CAVToC.23 ssm_CAVToC.23 toc_CAVToC.23 driverstateCAVToC.23" vType="vehLVOS252" speedFactor="0.93" vaporized=""/>
    <tripinfo id="CAVToC.24" depart="51.80" departLane="entry_0" departPos="2.39" departSpeed="30.62" departDelay="2.00" arrival="226.20" arrivalLane="e0_0" arrivalPos="4800.00" arrivalSpeed="33.53" duration="174.40" routeLength="4997.61" waitingTime="0.00" waitingCount="0" stopTime="0.00" timeLoss="25.65" rerouteNo="0" devices="tripinfo_CAVToC.24 routing_CAVToC.24 ssm_CAVToC.24 toc_CAVToC.24 driverstateCAVToC.24" vType="vehLVOS122" speedFactor="0.93" vaporized=""/>
    <tripinfo id="CVToC.16" depart="54.60" departLane="entry_1" departPos="0.81" departSpeed="32.50" departDelay="2.80" arrival="227.80" arrivalLane="e0_1" arrivalPos="4800.00" arrivalSpeed="35.29" duration="173.20" routeLength="4999.19" waitingTime="0.00" waitingCount="0" stopTime="0.00" timeLoss="31.62" rerouteNo="0" devices="tripinfo_CVToC.16 routing_CVToC.16 ssm_CVToC.16 toc_CVToC.16 driverstateCVToC.16" vType="vehLVOS265" speedFactor="0.98" vaporized=""/>
    <tripinfo id="CAVToC.26" depart="57.40" departLane="entry_1" departPos="9.30" departSpeed="32.86" departDelay="5.70" arrival="229.30" arrivalLane="e0_1" arrivalPos="4800.00" arrivalSpeed="37.98" duration="171.90" routeLength="4990.70" waitingTime="0.00" waitingCount="0" stopTime="0.00" timeLoss="44.31" rerouteNo="0" devices="tripinfo_CAVToC.26 routing_CAVToC.26 ssm_CAVToC.26 toc_CAVToC.26 driverstateCAVToC.26" vType="vehLVOS114" speedFactor="1.08" vaporized=""/>
    <tripinfo id="CAVToC.25" depart="54.90" departLane="entry_0" departPos="14.15" departSpeed="30.16" departDelay="4.60" arrival="230.90" arrivalLane="e0_0" arrivalPos="4800.00" arrivalSpeed="37.20" duration="176.00" routeLength="4985.85" waitingTime="0.00" waitingCount="0" stopTime="0.00" timeLoss="42.24" rerouteNo="0" devices="tripinfo_CAVToC.25 routing_CAVToC.25 ssm_CAVToC.25 toc_CAVToC.25 driverstateCAVToC.25" vType="vehLVOS489" speedFactor="1.03" vaporized=""/>
    <tripinfo id="CVToC.17" depart="60.10" departLane="entry_1" departPos="28.86" departSpeed="32.65" departDelay="5.10" arrival="232.40" arrivalLane="e0_1" arrivalPos="4800.00" arrivalSpeed="33.28" duration="172.30" routeLength="4971.14" waitingTime="0.00" waitingCount="0" stopTime="0.00" timeLoss="23.19" rerouteNo="0" devices="tripinfo_CVToC.17 routing_CVToC.17 ssm_CVToC.17 toc_CVToC.17 driverstateCVToC.17" vType="vehLVOS716" speedFactor="0.92" vaporized=""/>
    <tripinfo id="CAVToC.28" depart="61.40" departLane="entry_1" departPos="1.60" departSpeed="32.53" departDelay="7.30" arrival="233.50" arrivalLane="e0_1" arrivalPos="4800.00" arrivalSpeed="32.52" duration="172.10" routeLength="4998.40" waitingTime="0.00" waitingCount="0" stopTime="0.00" timeLoss="18.36" rerouteNo="0" devices="tripinfo_CAVToC.28 routing_CAVToC.28 ssm_CAVToC.28 toc_CAVToC.28 driverstateCAVToC.28" vType="vehLVOS49" speedFactor="0.90" vaporized=""/>
    <tripinfo id="CVToC.15" depart="57.50" departLane="entry_0" departPos="6.62" departSpeed="30.64" departDelay="7.90" arrival="234.40" arrivalLane="e0_0" arrivalPos="4800.00" arrivalSpeed="33.55" duration="176.90" routeLength="4993.38" waitingTime="0.00" waitingCount="0" stopTime="0.00" timeLoss="44.19" rerouteNo="0" devices="tripinfo_CVToC.15 routing_CVToC.15 ssm_CVToC.15 toc_CVToC.15 driverstateCVToC.15" vType="vehLVOS217" speedFactor="1.04" vaporized=""/>
    <tripinfo id="CAVToC.27" depart="59.80" departLane="entry_0" departPos="3.82" departSpeed="31.15" departDelay="7.10" arrival="235.70" arrivalLane="e0_0" arrivalPos="4800.00" arrivalSpeed="32.82" duration="175.90" routeLength="4996.18" waitingTime="0.00" waitingCount="0" stopTime="0.00" timeLoss="23.72" rerouteNo="0" devices="tripinfo_CAVToC.27 routing_CAVToC.27 ssm_CAVToC.27 toc_CAVToC.27 driverstateCAVToC.27" vType="vehLVOS181" speedFactor="0.91" vaporized=""/>
    <tripinfo id="CVToC.18" depart="64.30" departLane="entry_1" departPos="5.21" departSpeed="33.16" departDelay="6.90" arrival="236.30" arrivalLane="e0_1" arrivalPos="4800.00" arrivalSpeed="39.43" duration="172.00" routeLength="4994.79" waitingTime="0.00" waitingCount="0" stopTime="0.00" timeLoss="47.86" rerouteNo="0" devices="tripinfo_CVToC.18 routing_CVToC.18 ssm_CVToC.18 toc_CVToC.18 driverstateCVToC.18" vType="vehLVOS938" speedFactor="1.11" vaporized=""/>
    <tripinfo id="CVToC.19" depart="62.40" departLane="entry_0" departPos="15.30" departSpeed="31.26" departDelay="2.90" arrival="237.40" arrivalLane="e0_0" arrivalPos="4800.00" arrivalSpeed="32.70" duration="175.00" routeLength="4984.70" waitingTime="0.00" waitingCount="0" stopTime="0.00" timeLoss="22.76" rerouteNo="0" devices="tripinfo_CVToC.19 routing_CVToC.19 ssm_CVToC.19 toc_CVToC.19 driverstateCVToC.19" vType="vehLVOS846" speedFactor="0.91" vaporized=""/>
    <tripinfo id="CVToC.23" depart="67.10" departLane="entry_1" departPos="17.03" departSpeed="33.33" departDelay="0.70" arrival="238.40" arrivalLane="e0_1" arrivalPos="4800.00" arrivalSpeed="37.25" duration="171.30" routeLength="4982.97" waitingTime="0.00" waitingCount="0" stopTime="0.00" timeLoss="39.16" rerouteNo="0" devices="tripinfo_CVToC.23 routing_CVToC.23 ssm_CVToC.23 toc_CVToC.23 driverstateCVToC.23" vType="vehLVOS918" speedFactor="1.05" vaporized=""/>
    <tripinfo id="LV.11" depart="68.10" departLane="entry_1" departPos="7.90" departSpeed="34.05" departDelay="4.60" arrival="239.30" arrivalLane="e0_0" arrivalPos="4800.00" arrivalSpeed="34.05" duration="171.20" routeLength="4992.10" waitingTime="0.00" waitingCount="0" stopTime="0.00" timeLoss="24.57" rerouteNo="0" devices="tripinfo_LV.11 routing_LV.11 ssm_LV.11" vType="vehLVOS311" speedFactor="0.94" vaporized=""/>
    <tripinfo id="CVToC.20" depart="70.50" departLane="entry_1" departPos="9.38" departSpeed="34.06" departDelay="6.90" arrival="239.40" arrivalLane="e0_1" arrivalPos="4800.00" arrivalSpeed="37.23" duration="168.90" routeLength="4990.62" waitingTime="0.00" waitingCount="0" stopTime="0.00" timeLoss="34.83" rerouteNo="0" devices="tripinfo_CVToC.20 routing_CVToC.20 ssm_CVToC.20 toc_CVToC.20 driverstateCVToC.20" vType="vehLVOS562" speedFactor="1.03" vaporized=""/>
    <tripinfo id="LV.12" depart="72.00" departLane="entry_1" departPos="5.75" departSpeed="37.03" departDelay="6.90" arrival="240.20" arrivalLane="e0_1" arrivalPos="4800.00" arrivalSpeed="36.99" duration="168.20" routeLength="4994.25" waitingTime="0.00" waitingCount="0" stopTime="0.00" timeLoss="33.27" rerouteNo="0" devices="tripinfo_LV.12 routing_LV.12 ssm_LV.12" vType="vehLVOS488" speedFactor="1.03" vaporized=""/>
    <tripinfo id="CVToC.22" depart="74.70" departLane="entry_1" departPos="21.48" departSpeed="35.97" departDelay="9.20" arrival="242.20" arrivalLane="e0_1" arrivalPos="4800.00" arrivalSpeed="37.59" duration="167.50" routeLength="4978.52" waitingTime="0.00" waitingCount="0" stopTime="0.00" timeLoss="35.24" rerouteNo="0" devices="tripinfo_CVToC.22 routing_CVToC.22 ssm_CVToC.22 toc_CVToC.22 driverstateCVToC.22" vType="vehLVOS988" speedFactor="1.04" vaporized=""/>