<?xml version="1.0" encoding="UTF-8"?>

<!-- generated on Mon Jul 27 11:23:41 2020 by Eclipse SUMO Version v1_6_0+0553-a03471b
<configuration xmlns:xsi="http://www.w3.org/2001/XMLSchema-instance" xsi:noNamespaceSchemaLocation="http://sumo.dlr.de/xsd/sumoConfiguration.xsd">

    <input>
        <net-file value="scenario/UC5_1.net.xml"/>
        <route-files value="scenario/routes_trafficMix_0_trafficDemand_1_driverBehaviour_OS_seed_0.xml"/>
        <additional-files value="scenario/additionalsOutput_trafficMix_0_trafficDemand_1_driverBehaviour_OS_seed_0.xml,scenario/vTypesCAVToC_OS.add.xml,scenario/vTypesCVToC_OS.add.xml,scenario/vTypesLV_OS.add.xml,scenario/shapes.add.xml,scenario/view.add.xml"/>
    </input>

    <output>
        <tripinfo-output value="/home/noul_ar/workspace/tor-distribution/outputs/simulations/bad_test_2.zip_20200727-100032/tripinfo_8.xml"/>
    </output>

    <time>
        <step-length value="0.1"/>
    </time>

    <processing>
        <step-method.ballistic value="true"/>
        <ignore-route-errors value="true"/>
        <lanechange.duration value="2.5"/>
    </processing>

    <report>
        <no-step-log value="true"/>
    </report>

    <toc_device>
        <device.toc.ogNewTimeHeadway value="100"/>
        <device.toc.ogNewSpaceHeadway value="5"/>
        <device.toc.ogMaxDecel value="1"/>
        <device.toc.ogChangeRate value="1"/>
    </toc_device>

    <traci_server>
        <remote-port value="54623"/>
    </traci_server>

    <random_number>
        <seed value="1032"/>
    </random_number>

    <gui_only>
        <tracker-interval value="0.1"/>
    </gui_only>

</configuration>
-->

<tripinfos xmlns:xsi="http://www.w3.org/2001/XMLSchema-instance" xsi:noNamespaceSchemaLocation="http://sumo.dlr.de/xsd/tripinfo_file.xsd">
    <tripinfo id="LV.0" depart="2.40" departLane="entry_1" departPos="126.61" departSpeed="41.64" departDelay="0.00" arrival="120.90" arrivalLane="e0_0" arrivalPos="4800.00" arrivalSpeed="41.64" duration="118.50" routeLength="4873.39" waitingTime="0.00" waitingCount="0" stopTime="0.00" timeLoss="1.38" rerouteNo="0" devices="tripinfo_LV.0 routing_LV.0 ssm_LV.0" vType="vehLVOS594" speedFactor="1.15" vaporized=""/>
    <tripinfo id="CAVToC.1" depart="1.90" departLane="entry_1" departPos="199.90" departSpeed="39.24" departDelay="0.00" arrival="124.50" arrivalLane="e0_1" arrivalPos="4800.00" arrivalSpeed="39.22" duration="122.60" routeLength="4800.10" waitingTime="0.00" waitingCount="0" stopTime="0.00" timeLoss="0.20" rerouteNo="0" devices="tripinfo_CAVToC.1 routing_CAVToC.1 ssm_CAVToC.1 toc_CAVToC.1 driverstateCAVToC.1" vType="vehLVOS570" speedFactor="1.09" vaporized=""/>
    <tripinfo id="CVToC.1" depart="4.00" departLane="entry_1" departPos="111.63" departSpeed="36.44" departDelay="0.00" arrival="131.00" arrivalLane="e0_1" arrivalPos="4800.00" arrivalSpeed="38.55" duration="127.00" routeLength="4888.37" waitingTime="0.00" waitingCount="0" stopTime="0.00" timeLoss="0.55" rerouteNo="0" devices="tripinfo_CVToC.1 routing_CVToC.1 ssm_CVToC.1 toc_CVToC.1 driverstateCVToC.1" vType="vehLVOS974" speedFactor="1.07" vaporized=""/>
    <tripinfo id="CAVToC.0" depart="0.10" departLane="entry_0" departPos="199.90" departSpeed="36.04" departDelay="0.00" arrival="133.40" arrivalLane="e0_0" arrivalPos="4800.00" arrivalSpeed="36.04" duration="133.30" routeLength="4800.10" waitingTime="0.00" waitingCount="0" stopTime="0.00" timeLoss="0.02" rerouteNo="0" devices="tripinfo_CAVToC.0 routing_CAVToC.0 ssm_CAVToC.0 toc_CAVToC.0 driverstateCAVToC.0" vType="vehLVOS610" speedFactor="1.00" vaporized=""/>
    <tripinfo id="CVToC.0" depart="1.80" departLane="entry_0" departPos="182.87" departSpeed="36.26" departDelay="0.00" arrival="134.50" arrivalLane="e0_1" arrivalPos="4800.00" arrivalSpeed="37.16" duration="132.70" routeLength="4817.13" waitingTime="0.00" waitingCount="0" stopTime="0.00" timeLoss="3.20" rerouteNo="0" devices="tripinfo_CVToC.0 routing_CVToC.0 ssm_CVToC.0 toc_CVToC.0 driverstateCVToC.0" vType="vehLVOS323" speedFactor="1.03" vaporized=""/>
    <tripinfo id="LV.1" depart="2.90" departLane="entry_0" departPos="197.62" departSpeed="35.57" departDelay="0.00" arrival="138.10" arrivalLane="e0_0" arrivalPos="4800.00" arrivalSpeed="35.53" duration="135.20" routeLength="4802.38" waitingTime="0.00" waitingCount="0" stopTime="0.00" timeLoss="0.18" rerouteNo="0" devices="tripinfo_LV.1 routing_LV.1 ssm_LV.1" vType="vehLVOS125" speedFactor="0.99" vaporized=""/>
    <tripinfo id="CAVToC.4" depart="6.80" departLane="entry_1" departPos="136.84" departSpeed="37.32" departDelay="0.00" arrival="138.10" arrivalLane="e0_1" arrivalPos="4800.00" arrivalSpeed="37.28" duration="131.30" routeLength="4863.16" waitingTime="0.00" waitingCount="0" stopTime="0.00" timeLoss="0.92" rerouteNo="0" devices="tripinfo_CAVToC.4 routing_CAVToC.4 ssm_CAVToC.4 toc_CAVToC.4 driverstateCAVToC.4" vType="vehLVOS598" speedFactor="1.03" vaporized=""/>
    <tripinfo id="LV.2" depart="8.30" departLane="entry_1" departPos="70.26" departSpeed="39.63" departDelay="0.10" arrival="139.80" arrivalLane="e0_1" arrivalPos="4800.00" arrivalSpeed="39.62" duration="131.50" routeLength="4929.74" waitingTime="0.00" waitingCount="0" stopTime="0.00" timeLoss="7.00" rerouteNo="0" devices="tripinfo_LV.2 routing_LV.2 ssm_LV.2" vType="vehLVOS984" speedFactor="1.10" vaporized=""/>
    <tripinfo id="CAVToC.2" depart="3.20" departLane="entry_0" departPos="121.08" departSpeed="36.18" departDelay="0.00" arrival="140.00" arrivalLane="e0_0" arrivalPos="4800.00" arrivalSpeed="38.44" duration="136.80" routeLength="4878.92" waitingTime="0.00" waitingCount="0" stopTime="0.00" timeLoss="20.32" rerouteNo="0" devices="tripinfo_CAVToC.2 routing_CAVToC.2 ssm_CAVToC.2 toc_CAVToC.2 driverstateCAVToC.2" vType="vehLVOS439" speedFactor="1.16" vaporized=""/>
    <tripinfo id="CVToC.3" depart="10.00" departLane="entry_1" departPos="61.00" departSpeed="35.46" departDelay="0.00" arrival="149.50" arrivalLane="e0_1" arrivalPos="4800.00" arrivalSpeed="35.43" duration="139.50" routeLength="4939.00" waitingTime="0.00" waitingCount="0" stopTime="0.00" timeLoss="0.17" rerouteNo="0" devices="tripinfo_CVToC.3 routing_CVToC.3 ssm_CVToC.3 toc_CVToC.3 driverstateCVToC.3" vType="vehLVOS15" speedFactor="0.98" vaporized=""/>
    <tripinfo id="CAVToC.3" depart="4.20" departLane="entry_0" departPos="85.67" departSpeed="33.73" departDelay="0.00" arrival="151.30" arrivalLane="e0_0" arrivalPos="4800.00" arrivalSpeed="33.73" duration="147.10" routeLength="4914.33" waitingTime="0.00" waitingCount="0" stopTime="0.00" timeLoss="1.39" rerouteNo="0" devices="tripinfo_CAVToC.3 routing_CAVToC.3 ssm_CAVToC.3 toc_CAVToC.3 driverstateCAVToC.3" vType="vehLVOS768" speedFactor="0.93" vaporized=""/>
    <tripinfo id="LV.3" depart="11.10" departLane="entry_0" departPos="14.10" departSpeed="35.84" departDelay="0.70" arrival="153.60" arrivalLane="e0_1" arrivalPos="4800.00" arrivalSpeed="35.75" duration="142.50" routeLength="4985.90" waitingTime="0.00" waitingCount="0" stopTime="0.00" timeLoss="3.38" rerouteNo="0" devices="tripinfo_LV.3 routing_LV.3 ssm_LV.3" vType="vehLVOS369" speedFactor="0.99" vaporized=""/>
    <tripinfo id="CVToC.4" depart="13.20" departLane="entry_1" departPos="11.82" departSpeed="32.87" departDelay="1.30" arrival="154.80" arrivalLane="e0_1" arrivalPos="4800.00" arrivalSpeed="37.71" duration="141.60" routeLength="4988.18" waitingTime="0.00" waitingCount="0" stopTime="0.00" timeLoss="11.55" rerouteNo="0" devices="tripinfo_CVToC.4 routing_CVToC.4 ssm_CVToC.4 toc_CVToC.4 driverstateCVToC.4" vType="vehLVOS690" speedFactor="1.06" vaporized=""/>
    <tripinfo id="CAVToC.7" depart="14.70" departLane="entry_0" departPos="43.38" departSpeed="33.15" departDelay="0.10" arrival="155.70" arrivalLane="e0_1" arrivalPos="4800.00" arrivalSpeed="38.64" duration="141.00" routeLength="4956.62" waitingTime="0.00" waitingCount="0" stopTime="0.00" timeLoss="20.10" rerouteNo="0" devices="tripinfo_CAVToC.7 routing_CAVToC.7 ssm_CAVToC.7 toc_CAVToC.7 driverstateCAVToC.7" vType="vehLVOS851" speedFactor="1.14" vaporized=""/>
    <tripinfo id="CVToC.2" depart="7.90" departLane="entry_0" departPos="59.83" departSpeed="32.79" departDelay="0.00" arrival="156.60" arrivalLane="e0_1" arrivalPos="4800.00" arrivalSpeed="36.92" duration="148.70" routeLength="4940.17" waitingTime="0.00" waitingCount="0" stopTime="0.00" timeLoss="14.86" rerouteNo="0" devices="tripinfo_CVToC.2 routing_CVToC.2 ssm_CVToC.2 toc_CVToC.2 driverstateCVToC.2" vType="vehLVOS536" speedFactor="1.02" vaporized=""/>
    <tripinfo id="CAVToC.5" depart="6.90" departLane="entry_0" departPos="107.96" departSpeed="32.20" departDelay="0.00" arrival="159.60" arrivalLane="e0_0" arrivalPos="4800.00" arrivalSpeed="32.15" duration="152.70" routeLength="4892.04" waitingTime="0.00" waitingCount="0" stopTime="0.00" timeLoss="0.72" rerouteNo="0" devices="tripinfo_CAVToC.5 routing_CAVToC.5 ssm_CAVToC.5 toc_CAVToC.5 driverstateCAVToC.5" vType="vehLVOS174" speedFactor="0.89" vaporized=""/>
    <tripinfo id="CAVToC.6" depart="10.30" departLane="entry_1" departPos="2.20" departSpeed="32.13" departDelay="0.10" arrival="166.00" arrivalLane="e0_0" arrivalPos="4800.00" arrivalSpeed="32.07" duration="155.70" routeLength="4997.80" waitingTime="0.00" waitingCount="0" stopTime="0.00" timeLoss="0.12" rerouteNo="0" devices="tripinfo_CAVToC.6 routing_CAVToC.6 ssm_CAVToC.6 toc_CAVToC.6 driverstateCAVToC.6" vType="vehLVOS2" speedFactor="0.89" vaporized=""/>
    <tripinfo id="CVToC.6" depart="15.50" departLane="entry_1" departPos="26.03" departSpeed="29.55" departDelay="0.20" arrival="184.30" arrivalLane="e0_1" arrivalPos="4800.00" arrivalSpeed="29.46" duration="168.80" routeLength="4973.97" waitingTime="0.00" waitingCount="0" stopTime="0.00" timeLoss="0.43" rerouteNo="0" devices="tripinfo_CVToC.6 routing_CVToC.6 ssm_CVToC.6 toc_CVToC.6 driverstateCVToC.6" vType="vehLVOS198" speedFactor="0.82" vaporized=""/>
    <tripinfo id="CAVToC.8" depart="16.20" departLane="entry_0" departPos="7.27" departSpeed="33.41" departDelay="0.70" arrival="186.50" arrivalLane="e0_0" arrivalPos="4800.00" arrivalSpeed="31.52" duration="170.30" routeLength="4992.73" waitingTime="0.00" waitingCount="0" stopTime="0.00" timeLoss="39.73" rerouteNo="0" devices="tripinfo_CAVToC.8 routing_CAVToC.8 ssm_CAVToC.8 toc_CAVToC.8 driverstateCAVToC.8" vType="vehLVOS757" speedFactor="1.06" vaporized=""/>
    <tripinfo id="CAVToC.9" depart="17.60" departLane="entry_1" departPos="0.51" departSpeed="30.69" departDelay="1.20" arrival="186.90" arrivalLane="e0_1" arrivalPos="4800.00" arrivalSpeed="32.64" duration="169.30" routeLength="4999.49" waitingTime="0.00" waitingCount="0" stopTime="0.00" timeLoss="43.60" rerouteNo="0" devices="tripinfo_CAVToC.9 routing_CAVToC.9 ssm_CAVToC.9 toc_CAVToC.9 driverstateCAVToC.9" vType="vehLVOS668" speedFactor="1.10" vaporized=""/>
    <tripinfo id="CVToC.9" depart="20.40" departLane="entry_1" departPos="3.68" departSpeed="31.33" departDelay="1.70" arrival="188.40" arrivalLane="e0_1" arrivalPos="4800.00" arrivalSpeed="34.18" duration="168.00" routeLength="4996.32" waitingTime="0.00" waitingCount="0" stopTime="0.00" timeLoss="34.32" rerouteNo="0" devices="tripinfo_CVToC.9 routing_CVToC.9 ssm_CVToC.9 toc_CVToC.9 driverstateCVToC.9" vType="vehLVOS642" speedFactor="1.04" vaporized=""/>
    <tripinfo id="CVToC.7" depart="19.10" departLane="entry_0" departPos="4.63" departSpeed="28.15" departDelay="2.50" arrival="188.70" arrivalLane="e0_0" arrivalPos="4800.00" arrivalSpeed="34.41" duration="169.60" routeLength="4995.37" waitingTime="0.00" waitingCount="0" stopTime="0.00" timeLoss="41.29" rerouteNo="0" devices="tripinfo_CVToC.7 routing_CVToC.7 ssm_CVToC.7 toc_CVToC.7 driverstateCVToC.7" vType="vehLVOS83" speedFactor="1.08" vaporized=""/>
    <tripinfo id="CAVToC.10" depart="23.30" departLane="entry_1" departPos="22.63" departSpeed="31.36" departDelay="4.10" arrival="190.00" arrivalLane="e0_1" arrivalPos="4800.00" arrivalSpeed="32.62" duration="166.70" routeLength="4977.37" waitingTime="0.00" waitingCount="0" stopTime="0.00" timeLoss="14.26" rerouteNo="0" devices="tripinfo_CAVToC.10 routing_CAVToC.10 ssm_CAVToC.10 toc_CAVToC.10 driverstateCAVToC.10" vType="vehLVOS546" speedFactor="0.90" vaporized=""/>
    <tripinfo id="CVToC.12" depart="22.00" departLane="entry_0" departPos="0.43" departSpeed="29.08" departDelay="1.00" arrival="190.50" arrivalLane="e0_0" arrivalPos="4800.00" arrivalSpeed="33.69" duration="168.50" routeLength="4999.57" waitingTime="0.00" waitingCount="0" stopTime="0.00" timeLoss="36.46" rerouteNo="0" devices="tripinfo_CVToC.12 routing_CVToC.12 ssm_CVToC.12 toc_CVToC.12 driverstateCVToC.12" vType="vehLVOS848" speedFactor="1.05" vaporized=""/>
    <tripinfo id="CVToC.5" depart="25.60" departLane="entry_1" departPos="2.48" departSpeed="32.39" departDelay="11.00" arrival="193.20" arrivalLane="e0_1" arrivalPos="4800.00" arrivalSpeed="39.09" duration="167.60" routeLength="4997.52" waitingTime="0.00" waitingCount="0" stopTime="0.00" timeLoss="48.82" rerouteNo="0" devices="tripinfo_CVToC.5 routing_CVToC.5 ssm_CVToC.5 toc_CVToC.5 driverstateCVToC.5" vType="vehLVOS265" speedFactor="1.17" vaporized=""/>
    <tripinfo id="CVToC.11" depart="24.80" departLane="entry_0" departPos="0.85" departSpeed="29.68" departDelay="3.90" arrival="193.40" arrivalLane="e0_0" arrivalPos="4800.00" arrivalSpeed="36.17" duration="168.60" routeLength="4999.15" waitingTime="0.00" waitingCount="0" stopTime="0.00" timeLoss="30.33" rerouteNo="0" devices="tripinfo_CVToC.11 routing_CVToC.11 ssm_CVToC.11 toc_CVToC.11 driverstateCVToC.11" vType="vehLVOS108" speedFactor="1.00" vaporized=""/>
    <tripinfo id="CVToC.13" depart="27.90" departLane="entry_1" departPos="4.16" departSpeed="32.42" departDelay="4.20" arrival="194.30" arrivalLane="e0_1" arrivalPos="4800.00" arrivalSpeed="33.76" duration="166.40" routeLength="4995.84" waitingTime="0.00" waitingCount="0" stopTime="0.00" timeLoss="18.54" rerouteNo="0" devices="tripinfo_CVToC.13 routing_CVToC.13 ssm_CVToC.13 toc_CVToC.13 driverstateCVToC.13" vType="vehLVOS234" speedFactor="0.94" vaporized=""/>
    <tripinfo id="CVToC.14" depart="27.60" departLane="entry_0" departPos="0.53" departSpeed="30.29" departDelay="2.60" arrival="195.10" arrivalLane="e0_0" arrivalPos="4800.00" arrivalSpeed="35.04" duration="167.50" routeLength="4999.47" waitingTime="0.00" waitingCount="0" stopTime="0.00" timeLoss="37.16" rerouteNo="0" devices="tripinfo_CVToC.14 routing_CVToC.14 ssm_CVToC.14 toc_CVToC.14 driverstateCVToC.14" vType="vehLVOS8" speedFactor="1.06" vaporized=""/>
    <tripinfo id="CAVToC.11" depart="29.90" departLane="entry_1" departPos="1.53" departSpeed="31.69" departDelay="4.50" arrival="197.10" arrivalLane="e0_1" arrivalPos="4800.00" arrivalSpeed="31.68" duration="167.20" routeLength="4998.47" waitingTime="0.00" waitingCount="0" stopTime="0.00" timeLoss="9.38" rerouteNo="0" devices="tripinfo_CAVToC.11 routing_CAVToC.11 ssm_CAVToC.11 toc_CAVToC.11 driverstateCAVToC.11" vType="vehLVOS298" speedFactor="0.88" vaporized=""/>
    <tripinfo id="CVToC.15" depart="32.60" departLane="entry_1" departPos="11.59" departSpeed="32.22" departDelay="6.20" arrival="198.60" arrivalLane="e0_1" arrivalPos="4800.00" arrivalSpeed="33.55" duration="166.00" routeLength="4988.41" waitingTime="0.00" waitingCount="0" stopTime="0.00" timeLoss="27.53" rerouteNo="0" devices="tripinfo_CVToC.15 routing_CVToC.15 ssm_CVToC.15 toc_CVToC.15 driverstateCVToC.15" vType="vehLVOS895" speedFactor="1.00" vaporized=""/>
    <tripinfo id="CAVToC.12" depart="30.00" departLane="entry_0" departPos="8.59" departSpeed="30.37" departDelay="3.50" arrival="198.70" arrivalLane="e0_0" arrivalPos="4800.00" arrivalSpeed="31.23" duration="168.70" routeLength="4991.41" waitingTime="0.00" waitingCount="0" stopTime="0.00" timeLoss="8.93" rerouteNo="0" devices="tripinfo_CAVToC.12 routing_CAVToC.12 ssm_CAVToC.12 toc_CAVToC.12 driverstateCAVToC.12" vType="vehLVOS421" speedFactor="0.87" vaporized=""/>
    <tripinfo id="CVToC.17" depart="34.80" departLane="entry_1" departPos="12.27" departSpeed="31.77" departDelay="3.70" arrival="200.70" arrivalLane="e0_1" arrivalPos="4800.00" arrivalSpeed="31.59" duration="165.90" routeLength="4987.73" waitingTime="0.00" waitingCount="0" stopTime="0.00" timeLoss="8.81" rerouteNo="0" devices="tripinfo_CVToC.17 routing_CVToC.17 ssm_CVToC.17 toc_CVToC.17 driverstateCVToC.17" vType="vehLVOS879" speedFactor="0.88" vaporized=""/>
    <tripinfo id="CVToC.19" depart="36.90" departLane="entry_1" departPos="7.44" departSpeed="32.09" departDelay="1.10" arrival="201.50" arrivalLane="e0_0" arrivalPos="4800.00" arrivalSpeed="33.36" duration="164.60" routeLength="4992.56" waitingTime="0.00" waitingCount="0" stopTime="0.00" timeLoss="17.80" rerouteNo="0" devices="tripinfo_CVToC.19 routing_CVToC.19 ssm_CVToC.19 toc_CVToC.19 driverstateCVToC.19" vType="vehLVOS507" speedFactor="0.94" vaporized=""/>
    <tripinfo id="CVToC.10" depart="33.50" departLane="entry_0" departPos="3.65" departSpeed="29.52" departDelay="13.90" arrival="202.40" arrivalLane="e0_1" arrivalPos="4800.00" arrivalSpeed="38.15" duration="168.90" routeLength="4996.35" waitingTime="0.00" waitingCount="0" stopTime="0.00" timeLoss="43.07" rerouteNo="0" devices="tripinfo_CVToC.10 routing_CVToC.10 ssm_CVToC.10 toc_CVToC.10 driverstateCVToC.10" vType="vehLVOS822" speedFactor="1.10" vaporized=""/>
    <tripinfo id="CAVToC.13" depart="39.00" departLane="entry_1" departPos="4.23" departSpeed="32.23" departDelay="9.80" arrival="203.70" arrivalLane="e0_0" arrivalPos="4800.00" arrivalSpeed="33.38" duration="164.70" routeLength="4995.77" waitingTime="0.00" waitingCount="0" stopTime="0.00" timeLoss="15.04" rerouteNo="0" devices="tripinfo_CAVToC.13 routing_CAVToC.13 ssm_CAVToC.13 toc_CAVToC.13 driverstateCAVToC.13" vType="vehLVOS245" speedFactor="0.92" vaporized=""/>
    <tripinfo id="CVToC.18" depart="41.60" departLane="entry_1" departPos="10.73" departSpeed="32.70" departDelay="7.80" arrival="204.20" arrivalLane="e0_1" arrivalPos="4800.00" arrivalSpeed="37.11" duration="162.60" routeLength="4989.27" waitingTime="0.00" waitingCount="0" stopTime="0.00" timeLoss="28.19" rerouteNo="0" devices="tripinfo_CVToC.18 routing_CVToC.18 ssm_CVToC.18 toc_CVToC.18 driverstateCVToC.18" vType="vehLVOS391" speedFactor="1.03" vaporized=""/>
    <tripinfo id="CAVToC.15" depart="43.90" departLane="entry_1" departPos="7.75" departSpeed="33.18" departDelay="6.10" arrival="207.20" arrivalLane="e0_1" arrivalPos="4800.00" arrivalSpeed="37.85" duration="163.30" routeLength="4992.25" waitingTime="0.00" waitingCount="0" stopTime="0.00" timeLoss="31.72" rerouteNo="0" devices="tripinfo_CAVToC.15 routing_CAVToC.15 ssm_CAVToC.15 toc_CAVToC.15 driverstateCAVToC.15" vType="vehLVOS933" speedFactor="1.05" vaporized=""/>
    <tripinfo id="CVToC.22" depart="46.40" departLane="entry_1" departPos="5.04" departSpeed="33.69" departDelay="4.00" arrival="209.10" arrivalLane="e0_1" arrivalPos="4800.00" arrivalSpeed="39.15" duration="162.70" routeLength="4994.96" waitingTime="0.00" waitingCount="0" stopTime="0.00" timeLoss="35.07" rerouteNo="0" devices="tripinfo_CVToC.22 routing_CVToC.22 ssm_CVToC.22 toc_CVToC.22 driverstateCVToC.22" vType="vehLVOS172" speedFactor="1.08" vaporized=""/>
    <tripinfo id="LV.4" depart="30.20" departLane="entry_0" departPos="1.14" departSpeed="28.22" departDelay="1.80" arrival="210.30" arrivalLane="e0_0" arrivalPos="4800.00" arrivalSpeed="28.20" duration="180.10" routeLength="4998.86" waitingTime="0.00" waitingCount="0" stopTime="0.00" timeLoss="2.92" rerouteNo="0" devices="tripinfo_LV.4 routing_LV.4 ssm_LV.4" vType="vehLVOS592" speedFactor="0.78" vaporized=""/>
    <tripinfo id="CAVToC.16" depart="48.80" departLane="entry_1" departPos="14.59" departSpeed="33.27" departDelay="5.10" arrival="210.90" arrivalLane="e0_1" arrivalPos="4800.00" arrivalSpeed="33.25" duration="162.10" routeLength="4985.41" waitingTime="0.00" waitingCount="0" stopTime="0.00" timeLoss="12.22" rerouteNo="0" devices="tripinfo_CAVToC.16 routing_CAVToC.16 ssm_CAVToC.16 toc_CAVToC.16 driverstateCAVToC.16" vType="vehLVOS684" speedFactor="0.92" vaporized=""/>
    <tripinfo id="CVToC.8" depart="36.70" departLane="entry_0" departPos="0.61" departSpeed="31.02" departDelay="19.70" arrival="211.70" arrivalLane="e0_0" arrivalPos="4800.00" arrivalSpeed="30.51" duration="175.00" routeLength="4999.39" waitingTime="0.00" waitingCount="0" stopTime="0.00" timeLoss="65.77" rerouteNo="0" devices="tripinfo_CVToC.8 routing_CVToC.8 ssm_CVToC.8 toc_CVToC.8 driverstateCVToC.8" vType="vehLVOS15" speedFactor="1.27" vaporized=""/>
    <tripinfo id="CVToC.24" depart="51.50" departLane="entry_1" departPos="11.51" departSpeed="34.19" departDelay="6.00" arrival="214.10" arrivalLane="e0_1" arrivalPos="4800.00" arrivalSpeed="40.51" duration="162.60" routeLength="4988.49" waitingTime="0.00" waitingCount="0" stopTime="0.00" timeLoss="42.84" rerouteNo="0" devices="tripinfo_CVToC.24 routing_CVToC.24 ssm_CVToC.24 toc_CVToC.24 driverstateCVToC.24" vType="vehLVOS243" speedFactor="1.15" vaporized=""/>
    <tripinfo id="CVToC.20" depart="39.30" departLane="entry_0" departPos="3.16" departSpeed="29.97" departDelay="1.70" arrival="215.00" arrivalLane="e0_0" arrivalPos="4800.00" arrivalSpeed="35.74" duration="175.70" routeLength="4996.84" waitingTime="0.00" waitingCount="0" stopTime="0.00" timeLoss="36.30" rerouteNo="0" devices="tripinfo_CVToC.20 routing_CVToC.20 ssm_CVToC.20 toc_CVToC.20 driverstateCVToC.20" vType="vehLVOS875" speedFactor="0.99" vaporized=""/>
    <tripinfo id="CAVToC.20" depart="59.50" departLane="entry_1" departPos="41.75" departSpeed="31.57" departDelay="2.60" arrival="215.60" arrivalLane="e0_1" arrivalPos="4800.00" arrivalSpeed="36.02" duration="156.10" routeLength="4958.25" waitingTime="0.00" waitingCount="0" stopTime="0.00" timeLoss="18.45" rerouteNo="0" devices="tripinfo_CAVToC.20 routing_CAVToC.20 ssm_CAVToC.20 toc_CAVToC.20 driverstateCAVToC.20" vType="vehLVOS163" speedFactor="1.00" vaporized=""/>
    <tripinfo id="CAVToC.14" depart="42.00" departLane="entry_0" departPos="0.95" departSpeed="30.64" departDelay="8.80" arrival="216.50" arrivalLane="e0_0" arrivalPos="4800.00" arrivalSpeed="36.69" duration="174.50" routeLength="4999.05" waitingTime="0.00" waitingCount="0" stopTime="0.00" timeLoss="38.50" rerouteNo="0" devices="tripinfo_CAVToC.14 routing_CAVToC.14 ssm_CAVToC.14 toc_CAVToC.14 driverstateCAVToC.14" vType="vehLVOS120" speedFactor="1.02" vaporized=""/>
    <tripinfo id="CVToC.27" depart="61.60" departLane="entry_1" departPos="24.51" departSpeed="32.19" departDelay="7.50" arrival="217.20" arrivalLane="e0_1" arrivalPos="4800.00" arrivalSpeed="39.29" duration="155.60" routeLength="4975.49" waitingTime="0.00" waitingCount="0" stopTime="0.00" timeLoss="31.46" rerouteNo="0" devices="tripinfo_CVToC.27 routing_CVToC.27 ssm_CVToC.27 toc_CVToC.27 driverstateCVToC.27" vType="vehLVOS663" speedFactor="1.11" vaporized=""/>
    <tripinfo id="CVToC.23" depart="44.90" departLane="entry_0" departPos="2.31" departSpeed="31.49" departDelay="0.70" arrival="217.80" arrivalLane="e0_0" arrivalPos="4800.00" arrivalSpeed="36.55" duration="172.90" routeLength="4997.69" waitingTime="0.00" waitingCount="0" stopTime="0.00" timeLoss="48.93" rerouteNo="0" devices="tripinfo_CVToC.23 routing_CVToC.23 ssm_CVToC.23 toc_CVToC.23 driverstateCVToC.23" vType="vehLVOS975" speedFactor="1.12" vaporized=""/>
    <tripinfo id="CAVToC.23" depart="63.60" departLane="entry_1" departPos="6.07" departSpeed="32.56" departDelay="2.40" arrival="218.80" arrivalLane="e0_1" arrivalPos="4800.00" arrivalSpeed="38.22" duration="155.20" routeLength="4993.93" waitingTime="0.00" waitingCount="0" stopTime="0.00" timeLoss="24.52" rerouteNo="0" devices="tripinfo_CAVToC.23 routing_CAVToC.23 ssm_CAVToC.23 toc_CAVToC.23 driverstateCAVToC.23" vType="vehLVOS951" speedFactor="1.06" vaporized=""/>
    <tripinfo id="CVToC.21" depart="47.40" departLane="entry_0" departPos="4.55" departSpeed="31.74" departDelay="8.30" arrival="219.50" arrivalLane="e0_0" arrivalPos="4800.00" arrivalSpeed="35.66" duration="172.10" routeLength="4995.45" waitingTime="0.00" waitingCount="0" stopTime="0.00" timeLoss="31.94" rerouteNo="0" devices="tripinfo_CVToC.21 routing_CVToC.21 ssm_CVToC.21 toc_CVToC.21 driverstateCVToC.21" vType="vehLVOS680" speedFactor="0.99" vaporized=""/>
    <tripinfo id="LV.7" depart="56.20" departLane="entry_1" departPos="18.13" departSpeed="32.28" departDelay="5.20" arrival="221.50" arrivalLane="e0_0" arrivalPos="4800.00" arrivalSpeed="32.27" duration="165.30" routeLength="4981.87" waitingTime="0.00" waitingCount="0" stopTime="0.00" timeLoss="10.91" rerouteNo="0" devices="tripinfo_LV.7 routing_LV.7 ssm_LV.7" vType="vehLVOS782" speedFactor="0.89" vaporized=""/>
    <tripinfo id="CAVToC.22" depart="66.00" departLane="entry_1" departPos="6.84" departSpeed="32.55" departDelay="5.70" arrival="221.70" arrivalLane="e0_1" arrivalPos="4800.00" arrivalSpeed="35.69" duration="155.70" routeLength="4993.16" waitingTime="0.00" waitingCount="0" stopTime="0.00" timeLoss="16.21" rerouteNo="0" devices="tripinfo_CAVToC.22 routing_CAVToC.22 ssm_CAVToC.22 toc_CAVToC.22 driverstateCAVToC.22" vType="vehLVOS816" speedFactor="0.99" vaporized=""/>
    <tripinfo id="LV.9" depart="70.70" departLane="entry_1" departPos="8.94" departSpeed="38.35" departDelay="12.90" arrival="223.30" arrivalLane="e0_1" arrivalPos="4800.00" arrivalSpeed="37.44" duration="152.60" routeLength="4991.06" waitingTime="0.00" waitingCount="0" stopTime="0.00" timeLoss="22.37" rerouteNo="0" devices="tripinfo_LV.9 routing_LV.9 ssm_LV.9" vType="vehLVOS573" speedFactor="1.06" vaporized=""/>
    <tripinfo id="LV.12" depart="71.10" departLane="entry_1" departPos="13.46" departSpeed="36.20" departDelay="7.10" arrival="224.00" arrivalLane="e0_1" arrivalPos="4800.00" arrivalSpeed="36.20" duration="152.90" routeLength="4986.54" waitingTime="0.00" waitingCount="0" stopTime="0.00" timeLoss="15.15" rerouteNo="0" devices="tripinfo_LV.12 routing_LV.12 ssm_LV.12" vType="vehLVOS648" speedFactor="1.00" vaporized=""/>
    <tripinfo id="LV.11" depart="69.60" departLane="entry_0" departPos="19.69" departSpeed="40.49" departDelay="8.30" arrival="225.60" arrivalLane="e0_1" arrivalPos="4800.00" arrivalSpeed="38.60" duration="156.00" routeLength="4980.31" waitingTime="0.00" waitingCount="0" stopTime="0.00" timeLoss="33.01" rerouteNo="0" devices="tripinfo_LV.11 routing_LV.11 ssm_LV.11" vType="vehLVOS514" speedFactor="1.12" vaporized=""/>
    <tripinfo id="CAVToC.26" depart="73.00" departLane="entry_1" departPos="2.43" departSpeed="35.66" departDelay="8.10" arrival="230.10" arrivalLane="e0_1" arrivalPos="4800.00" arrivalSpeed="38.59" duration="157.10" routeLength="4997.57" waitingTime="0.00" waitingCount="0" stopTime="0.00" timeLoss="27.55" rerouteNo="0" devices="tripinfo_CAVToC.26 routing_CAVToC.26 ssm_CAVToC.26 toc_CAVToC.26 driverstateCAVToC.26" vType="vehLVOS761" speedFactor="1.07" vaporized=""/>
    <tripinfo id="CAVToC.17" depart="54.20" departLane="entry_1" departPos="40.61" departSpeed="28.57" departDelay="2.90" arrival="230.40" arrivalLane="e0_0" arrivalPos="4800.00" arrivalSpeed="28.51" duration="176.20" routeLength="4959.39" waitingTime="0.00" waitingCount="0" stopTime="0.00" timeLoss="2.55" rerouteNo="0" devices="tripinfo_CAVToC.17 routing_CAVToC.17 ssm_CAVToC.17 toc_CAVToC.17 driverstateCAVToC.17" vType="vehLVOS274" speedFactor="0.79" vaporized=""/>
    <tripinfo id="LV.5" depart="75.20" departLane="entry_1" departPos="1.34" departSpeed="38.10" departDelay="30.80" arrival="231.00" arrivalLane="e0_1" arrivalPos="4800.00" arrivalSpeed="37.99" duration="155.80" routeLength="4998.66" waitingTime="0.00" waitingCount="0" stopTime="0.00" timeLoss="24.55" rerouteNo="0" devices="tripinfo_LV.5 routing_LV.5 ssm_LV.5" vType="vehLVOS890" speedFactor="1.06" vaporized=""/>
    <tripinfo id="CVToC.16" depart="50.40" departLane="entry_0" departPos="6.17" departSpeed="32.50" departDelay="22.00" arrival="231.80" arrivalLane="e0_0" arrivalPos="4800.00" arrivalSpeed="31.02" duration="181.40" routeLength="4993.83" waitingTime="0.00" waitingCount="0" stopTime="0.00" timeLoss="61.41" rerouteNo="0" devices="tripinfo_CVToC.16 routing_CVToC.16 ssm_CVToC.16 toc_CVToC.16 driverstateCVToC.16" vType="vehLVOS203" speedFactor="1.15" vaporized=""/>
    <tripinfo id="LV.8" depart="75.20" departLane="entry_0" departPos="6.98" departSpeed="40.22" departDelay="21.10" arrival="232.10" arrivalLane="e0_1" arrivalPos="4800.00" arrivalSpeed="39.48" duration="156.90" routeLength="4993.02" waitingTime="0.00" waitingCount="0" stopTime="0.00" timeLoss="32.70" rerouteNo="0" devices="tripinfo_LV.8 routing_LV.8 ssm_LV.8" vType="vehLVOS981" speedFactor="1.11" vaporized=""/>
    <tripinfo id="CVToC.25" depart="52.90" departLane="entry_0" departPos="15.97" departSpeed="31.48" departDelay="6.40" arrival="235.20" arrivalLane="e0_0" arrivalPos="4800.00" arrivalSpeed="33.50" duration="182.30" routeLength="4984.03" waitingTime="0.00" waitingCount="0" stopTime="0.00" timeLoss="34.04" rerouteNo="0" devices="tripinfo_CVToC.25 routing_CVToC.25 ssm_CVToC.25 toc_CVToC.25 driverstateCVToC.25" vType="vehLVOS574" speedFactor="0.93" vaporized=""/>
    <tripinfo id="CVToC.30" depart="77.10" departLane="entry_1" departPos="0.84" departSpeed="35.38" departDelay="12.00" arrival="235.30" arrivalLane="e0_1" arrivalPos="4800.00" arrivalSpeed="35.34" duration="158.20" routeLength="4999.16" waitingTime="0.00" waitingCount="0" stopTime="0.00" timeLoss="16.91" rerouteNo="0" devices="tripinfo_CVToC.30 routing_CVToC.30 ssm_CVToC.30 toc_CVToC.30 driverstateCVToC.30" vType="vehLVOS369" speedFactor="0.98" vaporized=""/>