<?xml version="1.0" encoding="UTF-8"?>

<!-- generated on Mon Jul 27 10:00:41 2020 by Eclipse SUMO Version v1_6_0+0553-a03471b
<configuration xmlns:xsi="http://www.w3.org/2001/XMLSchema-instance" xsi:noNamespaceSchemaLocation="http://sumo.dlr.de/xsd/sumoConfiguration.xsd">

    <input>
        <net-file value="scenario/UC5_1.net.xml"/>
        <route-files value="scenario/routes_trafficMix_0_trafficDemand_1_driverBehaviour_OS_seed_0.xml"/>
        <additional-files value="scenario/additionalsOutput_trafficMix_0_trafficDemand_1_driverBehaviour_OS_seed_0.xml,scenario/vTypesCAVToC_OS.add.xml,scenario/vTypesCVToC_OS.add.xml,scenario/vTypesLV_OS.add.xml,scenario/shapes.add.xml,scenario/view.add.xml"/>
    </input>

    <output>
        <tripinfo-output value="/home/noul_ar/workspace/tor-distribution/outputs/simulations/bad_test_2.zip_20200727-100032/tripinfo_1.xml"/>
    </output>

    <time>
        <step-length value="0.1"/>
    </time>

    <processing>
        <step-method.ballistic value="true"/>
        <ignore-route-errors value="true"/>
        <lanechange.duration value="2.5"/>
    </processing>

    <report>
        <no-step-log value="true"/>
    </report>

    <toc_device>
        <device.toc.ogNewTimeHeadway value="100"/>
        <device.toc.ogNewSpaceHeadway value="5"/>
        <device.toc.ogMaxDecel value="1"/>
        <device.toc.ogChangeRate value="1"/>
    </toc_device>

    <traci_server>
        <remote-port value="51499"/>
    </traci_server>

    <random_number>
        <seed value="1025"/>
    </random_number>

    <gui_only>
        <tracker-interval value="0.1"/>
    </gui_only>

</configuration>
-->

<tripinfos xmlns:xsi="http://www.w3.org/2001/XMLSchema-instance" xsi:noNamespaceSchemaLocation="http://sumo.dlr.de/xsd/tripinfo_file.xsd">
    <tripinfo id="CVToC.2" depart="7.10" departLane="entry_1" departPos="199.90" departSpeed="37.77" departDelay="0.00" arrival="133.30" arrivalLane="e0_1" arrivalPos="4800.00" arrivalSpeed="40.58" duration="126.20" routeLength="4800.10" waitingTime="0.00" waitingCount="0" stopTime="0.00" timeLoss="7.87" rerouteNo="0" devices="tripinfo_CVToC.2 routing_CVToC.2 ssm_CVToC.2 toc_CVToC.2 driverstateCVToC.2" vType="vehLVOS696" speedFactor="1.12" vaporized=""/>
    <tripinfo id="LV.0" depart="4.60" departLane="entry_1" departPos="199.90" departSpeed="37.23" departDelay="0.00" arrival="133.80" arrivalLane="e0_0" arrivalPos="4800.00" arrivalSpeed="37.22" duration="129.20" routeLength="4800.10" waitingTime="0.00" waitingCount="0" stopTime="0.00" timeLoss="0.25" rerouteNo="0" devices="tripinfo_LV.0 routing_LV.0 ssm_LV.0" vType="vehLVOS656" speedFactor="1.03" vaporized=""/>
    <tripinfo id="LV.1" depart="8.00" departLane="entry_1" departPos="145.28" departSpeed="39.19" departDelay="0.00" arrival="138.70" arrivalLane="e0_1" arrivalPos="4800.00" arrivalSpeed="38.97" duration="130.70" routeLength="4854.72" waitingTime="0.00" waitingCount="0" stopTime="0.00" timeLoss="6.72" rerouteNo="0" devices="tripinfo_LV.1 routing_LV.1 ssm_LV.1" vType="vehLVOS687" speedFactor="1.09" vaporized=""/>
    <tripinfo id="CVToC.0" depart="2.30" departLane="entry_0" departPos="199.90" departSpeed="35.42" departDelay="0.00" arrival="139.00" arrivalLane="e0_0" arrivalPos="4800.00" arrivalSpeed="35.36" duration="136.70" routeLength="4800.10" waitingTime="0.00" waitingCount="0" stopTime="0.00" timeLoss="1.15" rerouteNo="0" devices="tripinfo_CVToC.0 routing_CVToC.0 ssm_CVToC.0 toc_CVToC.0 driverstateCVToC.0" vType="vehLVOS473" speedFactor="0.98" vaporized=""/>
    <tripinfo id="CVToC.3" depart="9.00" departLane="entry_1" departPos="99.30" departSpeed="36.84" departDelay="0.00" arrival="139.90" arrivalLane="e0_1" arrivalPos="4800.00" arrivalSpeed="41.03" duration="130.90" routeLength="4900.70" waitingTime="0.00" waitingCount="0" stopTime="0.00" timeLoss="13.38" rerouteNo="0" devices="tripinfo_CVToC.3 routing_CVToC.3 ssm_CVToC.3 toc_CVToC.3 driverstateCVToC.3" vType="vehLVOS944" speedFactor="1.16" vaporized=""/>
    <tripinfo id="CVToC.1" depart="3.50" departLane="entry_0" departPos="173.54" departSpeed="32.53" departDelay="0.00" arrival="152.10" arrivalLane="e0_0" arrivalPos="4800.00" arrivalSpeed="32.53" duration="148.60" routeLength="4826.46" waitingTime="0.00" waitingCount="0" stopTime="0.00" timeLoss="0.25" rerouteNo="0" devices="tripinfo_CVToC.1 routing_CVToC.1 ssm_CVToC.1 toc_CVToC.1 driverstateCVToC.1" vType="vehLVOS645" speedFactor="0.90" vaporized=""/>
    <tripinfo id="LV.3" depart="13.60" departLane="entry_0" departPos="140.52" departSpeed="33.19" departDelay="0.50" arrival="160.80" arrivalLane="e0_0" arrivalPos="4800.00" arrivalSpeed="33.12" duration="147.20" routeLength="4859.48" waitingTime="0.00" waitingCount="0" stopTime="0.00" timeLoss="0.74" rerouteNo="0" devices="tripinfo_LV.3 routing_LV.3 ssm_LV.3" vType="vehLVOS630" speedFactor="0.92" vaporized=""/>
    <tripinfo id="CAVToC.2" depart="11.30" departLane="entry_1" departPos="14.53" departSpeed="23.22" departDelay="0.00" arrival="163.00" arrivalLane="e0_1" arrivalPos="4800.00" arrivalSpeed="33.99" duration="151.70" routeLength="4985.47" waitingTime="0.00" waitingCount="0" stopTime="0.00" timeLoss="5.10" rerouteNo="0" devices="tripinfo_CAVToC.2 routing_CAVToC.2 ssm_CAVToC.2 toc_CAVToC.2 driverstateCAVToC.2" vType="vehLVOS876" speedFactor="0.94" vaporized=""/>
    <tripinfo id="CAVToC.0" depart="10.00" departLane="entry_1" departPos="70.55" departSpeed="32.14" departDelay="0.00" arrival="163.50" arrivalLane="e0_0" arrivalPos="4800.00" arrivalSpeed="32.12" duration="153.50" routeLength="4929.45" waitingTime="0.00" waitingCount="0" stopTime="0.00" timeLoss="0.13" rerouteNo="0" devices="tripinfo_CAVToC.0 routing_CAVToC.0 ssm_CAVToC.0 toc_CAVToC.0 driverstateCAVToC.0" vType="vehLVOS228" speedFactor="0.89" vaporized=""/>
    <tripinfo id="CVToC.4" depart="13.40" departLane="entry_0" departPos="196.60" departSpeed="29.22" departDelay="0.20" arrival="163.80" arrivalLane="e0_1" arrivalPos="4800.00" arrivalSpeed="35.27" duration="150.40" routeLength="4803.40" waitingTime="0.00" waitingCount="0" stopTime="0.00" timeLoss="17.87" rerouteNo="0" devices="tripinfo_CVToC.4 routing_CVToC.4 ssm_CVToC.4 toc_CVToC.4 driverstateCVToC.4" vType="vehLVOS911" speedFactor="1.00" vaporized=""/>
    <tripinfo id="LV.8" depart="21.80" departLane="entry_1" departPos="43.64" departSpeed="35.64" departDelay="1.70" arrival="177.30" arrivalLane="e0_1" arrivalPos="4800.00" arrivalSpeed="35.64" duration="155.50" routeLength="4956.36" waitingTime="0.00" waitingCount="0" stopTime="0.00" timeLoss="16.42" rerouteNo="0" devices="tripinfo_LV.8 routing_LV.8 ssm_LV.8" vType="vehLVOS557" speedFactor="0.99" vaporized=""/>
    <tripinfo id="CVToC.6" depart="19.00" departLane="entry_1" departPos="53.92" departSpeed="31.10" departDelay="0.00" arrival="178.30" arrivalLane="e0_0" arrivalPos="4800.00" arrivalSpeed="31.01" duration="159.30" routeLength="4946.08" waitingTime="0.00" waitingCount="0" stopTime="0.00" timeLoss="0.19" rerouteNo="0" devices="tripinfo_CVToC.6 routing_CVToC.6 ssm_CVToC.6 toc_CVToC.6 driverstateCVToC.6" vType="vehLVOS345" speedFactor="0.86" vaporized=""/>
    <tripinfo id="LV.5" depart="18.20" departLane="entry_0" departPos="69.65" departSpeed="35.33" departDelay="0.20" arrival="178.50" arrivalLane="e0_1" arrivalPos="4800.00" arrivalSpeed="35.28" duration="160.30" routeLength="4930.35" waitingTime="0.00" waitingCount="0" stopTime="0.00" timeLoss="20.70" rerouteNo="0" devices="tripinfo_LV.5 routing_LV.5 ssm_LV.5" vType="vehLVOS488" speedFactor="0.98" vaporized=""/>
    <tripinfo id="CAVToC.1" depart="10.60" departLane="entry_0" departPos="199.90" departSpeed="28.27" departDelay="0.00" arrival="180.90" arrivalLane="e0_0" arrivalPos="4800.00" arrivalSpeed="28.27" duration="170.30" routeLength="4800.10" waitingTime="0.00" waitingCount="0" stopTime="0.00" timeLoss="0.51" rerouteNo="0" devices="tripinfo_CAVToC.1 routing_CAVToC.1 ssm_CAVToC.1 toc_CAVToC.1 driverstateCAVToC.1" vType="vehLVOS103" speedFactor="0.78" vaporized=""/>
    <tripinfo id="LV.9" depart="22.00" departLane="entry_0" departPos="1.31" departSpeed="34.03" departDelay="0.20" arrival="181.00" arrivalLane="e0_1" arrivalPos="4800.00" arrivalSpeed="34.02" duration="159.00" routeLength="4998.69" waitingTime="0.00" waitingCount="0" stopTime="0.00" timeLoss="12.09" rerouteNo="0" devices="tripinfo_LV.9 routing_LV.9 ssm_LV.9" vType="vehLVOS437" speedFactor="0.94" vaporized=""/>
    <tripinfo id="LV.6" depart="18.90" departLane="entry_1" departPos="117.78" departSpeed="31.11" departDelay="0.00" arrival="182.20" arrivalLane="e0_0" arrivalPos="4800.00" arrivalSpeed="29.87" duration="163.30" routeLength="4882.22" waitingTime="0.00" waitingCount="0" stopTime="0.00" timeLoss="6.35" rerouteNo="0" devices="tripinfo_LV.6 routing_LV.6 ssm_LV.6" vType="vehLVOS774" speedFactor="0.86" vaporized=""/>
    <tripinfo id="CAVToC.5" depart="24.90" departLane="entry_1" departPos="2.22" departSpeed="33.27" departDelay="3.00" arrival="182.70" arrivalLane="e0_1" arrivalPos="4800.00" arrivalSpeed="34.84" duration="157.80" routeLength="4997.78" waitingTime="0.00" waitingCount="0" stopTime="0.00" timeLoss="14.39" rerouteNo="0" devices="tripinfo_CAVToC.5 routing_CAVToC.5 ssm_CAVToC.5 toc_CAVToC.5 driverstateCAVToC.5" vType="vehLVOS194" speedFactor="0.97" vaporized=""/>
    <tripinfo id="CVToC.7" depart="22.70" departLane="entry_1" departPos="7.34" departSpeed="32.97" departDelay="0.30" arrival="184.70" arrivalLane="e0_0" arrivalPos="4800.00" arrivalSpeed="32.97" duration="162.00" routeLength="4992.66" waitingTime="0.00" waitingCount="0" stopTime="0.00" timeLoss="10.52" rerouteNo="0" devices="tripinfo_CVToC.7 routing_CVToC.7 ssm_CVToC.7 toc_CVToC.7 driverstateCVToC.7" vType="vehLVOS930" speedFactor="0.91" vaporized=""/>
    <tripinfo id="CVToC.8" depart="27.40" departLane="entry_1" departPos="2.86" departSpeed="33.86" departDelay="4.10" arrival="185.70" arrivalLane="e0_1" arrivalPos="4800.00" arrivalSpeed="36.22" duration="158.30" routeLength="4997.14" waitingTime="0.00" waitingCount="0" stopTime="0.00" timeLoss="30.37" rerouteNo="0" devices="tripinfo_CVToC.8 routing_CVToC.8 ssm_CVToC.8 toc_CVToC.8 driverstateCVToC.8" vType="vehLVOS508" speedFactor="1.08" vaporized=""/>
    <tripinfo id="CVToC.12" depart="32.10" departLane="entry_1" departPos="7.93" departSpeed="33.95" departDelay="1.40" arrival="187.00" arrivalLane="e0_1" arrivalPos="4800.00" arrivalSpeed="36.37" duration="154.90" routeLength="4992.07" waitingTime="0.00" waitingCount="0" stopTime="0.00" timeLoss="17.82" rerouteNo="0" devices="tripinfo_CVToC.12 routing_CVToC.12 ssm_CVToC.12 toc_CVToC.12 driverstateCVToC.12" vType="vehLVOS709" speedFactor="1.01" vaporized=""/>
    <tripinfo id="LV.7" depart="20.00" departLane="entry_0" departPos="40.95" departSpeed="29.79" departDelay="0.20" arrival="188.30" arrivalLane="e0_0" arrivalPos="4800.00" arrivalSpeed="29.78" duration="168.30" routeLength="4959.05" waitingTime="0.00" waitingCount="0" stopTime="0.00" timeLoss="1.81" rerouteNo="0" devices="tripinfo_LV.7 routing_LV.7 ssm_LV.7" vType="vehLVOS513" speedFactor="0.82" vaporized=""/>
    <tripinfo id="CAVToC.6" depart="35.10" departLane="entry_1" departPos="16.21" departSpeed="33.27" departDelay="1.50" arrival="188.70" arrivalLane="e0_1" arrivalPos="4800.00" arrivalSpeed="37.75" duration="153.60" routeLength="4983.79" waitingTime="0.00" waitingCount="0" stopTime="0.00" timeLoss="40.80" rerouteNo="0" devices="tripinfo_CAVToC.6 routing_CAVToC.6 ssm_CAVToC.6 toc_CAVToC.6 driverstateCAVToC.6" vType="vehLVOS299" speedFactor="1.22" vaporized=""/>
    <tripinfo id="CVToC.10" depart="29.80" departLane="entry_1" departPos="9.63" departSpeed="34.00" departDelay="2.70" arrival="189.80" arrivalLane="e0_0" arrivalPos="4800.00" arrivalSpeed="32.72" duration="160.00" routeLength="4990.37" waitingTime="0.00" waitingCount="0" stopTime="0.00" timeLoss="19.78" rerouteNo="0" devices="tripinfo_CVToC.10 routing_CVToC.10 ssm_CVToC.10 toc_CVToC.10 driverstateCVToC.10" vType="vehLVOS597" speedFactor="0.99" vaporized=""/>
    <tripinfo id="CVToC.14" depart="38.30" departLane="entry_1" departPos="17.61" departSpeed="30.88" departDelay="0.20" arrival="191.70" arrivalLane="e0_1" arrivalPos="4800.00" arrivalSpeed="37.13" duration="153.40" routeLength="4982.39" waitingTime="0.00" waitingCount="0" stopTime="0.00" timeLoss="19.32" rerouteNo="0" devices="tripinfo_CVToC.14 routing_CVToC.14 ssm_CVToC.14 toc_CVToC.14 driverstateCVToC.14" vType="vehLVOS479" speedFactor="1.03" vaporized=""/>
    <tripinfo id="LV.13" depart="38.10" departLane="entry_0" departPos="21.06" departSpeed="36.93" departDelay="0.30" arrival="196.60" arrivalLane="e0_1" arrivalPos="4800.00" arrivalSpeed="36.91" duration="158.50" routeLength="4978.94" waitingTime="0.00" waitingCount="0" stopTime="0.00" timeLoss="23.59" rerouteNo="0" devices="tripinfo_LV.13 routing_LV.13 ssm_LV.13" vType="vehLVOS81" speedFactor="1.02" vaporized=""/>
    <tripinfo id="CVToC.15" depart="40.40" departLane="entry_1" departPos="8.21" departSpeed="30.69" departDelay="1.10" arrival="197.20" arrivalLane="e0_0" arrivalPos="4800.00" arrivalSpeed="34.65" duration="156.80" routeLength="4991.79" waitingTime="0.00" waitingCount="0" stopTime="0.00" timeLoss="12.92" rerouteNo="0" devices="tripinfo_CVToC.15 routing_CVToC.15 ssm_CVToC.15 toc_CVToC.15 driverstateCVToC.15" vType="vehLVOS976" speedFactor="0.96" vaporized=""/>
    <tripinfo id="LV.12" depart="35.10" departLane="entry_1" departPos="0.40" departSpeed="30.97" departDelay="0.60" arrival="202.40" arrivalLane="e0_0" arrivalPos="4800.00" arrivalSpeed="30.92" duration="167.30" routeLength="4999.60" waitingTime="0.00" waitingCount="0" stopTime="0.00" timeLoss="5.83" rerouteNo="0" devices="tripinfo_LV.12 routing_LV.12 ssm_LV.12" vType="vehLVOS625" speedFactor="0.86" vaporized=""/>
    <tripinfo id="LV.15" depart="44.10" departLane="entry_0" departPos="54.17" departSpeed="34.75" departDelay="1.80" arrival="203.10" arrivalLane="e0_1" arrivalPos="4800.00" arrivalSpeed="34.75" duration="159.00" routeLength="4945.83" waitingTime="0.00" waitingCount="0" stopTime="0.00" timeLoss="16.65" rerouteNo="0" devices="tripinfo_LV.15 routing_LV.15 ssm_LV.15" vType="vehLVOS180" speedFactor="0.96" vaporized=""/>
    <tripinfo id="CAVToC.13" depart="47.60" departLane="entry_1" departPos="74.70" departSpeed="29.17" departDelay="3.60" arrival="205.80" arrivalLane="e0_1" arrivalPos="4800.00" arrivalSpeed="34.54" duration="158.20" routeLength="4925.30" waitingTime="0.00" waitingCount="0" stopTime="0.00" timeLoss="15.59" rerouteNo="0" devices="tripinfo_CAVToC.13 routing_CAVToC.13 ssm_CAVToC.13 toc_CAVToC.13 driverstateCAVToC.13" vType="vehLVOS706" speedFactor="0.96" vaporized=""/>
    <tripinfo id="CAVToC.9" depart="45.10" departLane="entry_1" departPos="78.66" departSpeed="28.94" departDelay="3.50" arrival="207.20" arrivalLane="e0_0" arrivalPos="4800.00" arrivalSpeed="31.81" duration="162.10" routeLength="4921.34" waitingTime="0.00" waitingCount="0" stopTime="0.00" timeLoss="7.38" rerouteNo="0" devices="tripinfo_CAVToC.9 routing_CAVToC.9 ssm_CAVToC.9 toc_CAVToC.9 driverstateCAVToC.9" vType="vehLVOS461" speedFactor="0.88" vaporized=""/>
    <tripinfo id="CAVToC.11" depart="46.20" departLane="entry_0" departPos="37.00" departSpeed="32.85" departDelay="3.30" arrival="208.20" arrivalLane="e0_1" arrivalPos="4800.00" arrivalSpeed="40.72" duration="162.00" routeLength="4963.00" waitingTime="0.00" waitingCount="0" stopTime="0.00" timeLoss="40.10" rerouteNo="0" devices="tripinfo_CAVToC.11 routing_CAVToC.11 ssm_CAVToC.11 toc_CAVToC.11 driverstateCAVToC.11" vType="vehLVOS511" speedFactor="1.13" vaporized=""/>
    <tripinfo id="CAVToC.12" depart="50.30" departLane="entry_1" departPos="1.14" departSpeed="30.36" departDelay="7.10" arrival="209.40" arrivalLane="e0_1" arrivalPos="4800.00" arrivalSpeed="38.62" duration="159.10" routeLength="4998.86" waitingTime="0.00" waitingCount="0" stopTime="0.00" timeLoss="33.91" rerouteNo="0" devices="tripinfo_CAVToC.12 routing_CAVToC.12 ssm_CAVToC.12 toc_CAVToC.12 driverstateCAVToC.12" vType="vehLVOS435" speedFactor="1.11" vaporized=""/>
    <tripinfo id="CVToC.17" depart="54.70" departLane="entry_1" departPos="45.61" departSpeed="31.16" departDelay="7.70" arrival="210.20" arrivalLane="e0_0" arrivalPos="4800.00" arrivalSpeed="39.22" duration="155.50" routeLength="4954.39" waitingTime="0.00" waitingCount="0" stopTime="0.00" timeLoss="29.15" rerouteNo="0" devices="tripinfo_CVToC.17 routing_CVToC.17 ssm_CVToC.17 toc_CVToC.17 driverstateCVToC.17" vType="vehLVOS223" speedFactor="1.09" vaporized=""/>
    <tripinfo id="CAVToC.14" depart="57.40" departLane="entry_1" departPos="47.99" departSpeed="31.85" departDelay="12.50" arrival="214.80" arrivalLane="e0_1" arrivalPos="4800.00" arrivalSpeed="38.50" duration="157.40" routeLength="4952.01" waitingTime="0.00" waitingCount="0" stopTime="0.00" timeLoss="28.82" rerouteNo="0" devices="tripinfo_CAVToC.14 routing_CAVToC.14 ssm_CAVToC.14 toc_CAVToC.14 driverstateCAVToC.14" vType="vehLVOS922" speedFactor="1.07" vaporized=""/>
    <tripinfo id="LV.17" depart="53.50" departLane="entry_0" departPos="36.05" departSpeed="33.20" departDelay="3.00" arrival="217.30" arrivalLane="e0_0" arrivalPos="4800.00" arrivalSpeed="33.16" duration="163.80" routeLength="4963.95" waitingTime="0.00" waitingCount="0" stopTime="0.00" timeLoss="14.23" rerouteNo="0" devices="tripinfo_LV.17 routing_LV.17 ssm_LV.17" vType="vehLVOS397" speedFactor="0.92" vaporized=""/>
    <tripinfo id="LV.18" depart="60.10" departLane="entry_1" departPos="75.67" departSpeed="34.86" departDelay="9.30" arrival="218.10" arrivalLane="e0_1" arrivalPos="4800.00" arrivalSpeed="34.81" duration="158.00" routeLength="4924.33" waitingTime="0.00" waitingCount="0" stopTime="0.00" timeLoss="16.66" rerouteNo="0" devices="tripinfo_LV.18 routing_LV.18 ssm_LV.18" vType="vehLVOS769" speedFactor="0.97" vaporized=""/>
    <tripinfo id="CAVToC.16" depart="65.30" departLane="entry_1" departPos="91.42" departSpeed="32.50" departDelay="11.40" arrival="224.40" arrivalLane="e0_1" arrivalPos="4800.00" arrivalSpeed="37.23" duration="159.10" routeLength="4908.58" waitingTime="0.00" waitingCount="0" stopTime="0.00" timeLoss="27.24" rerouteNo="0" devices="tripinfo_CAVToC.16 routing_CAVToC.16 ssm_CAVToC.16 toc_CAVToC.16 driverstateCAVToC.16" vType="vehLVOS412" speedFactor="1.03" vaporized=""/>
    <tripinfo id="CVToC.20" depart="60.10" departLane="entry_1" departPos="6.70" departSpeed="31.85" departDelay="8.30" arrival="225.60" arrivalLane="e0_0" arrivalPos="4800.00" arrivalSpeed="31.84" duration="165.50" routeLength="4993.30" waitingTime="0.00" waitingCount="0" stopTime="0.00" timeLoss="8.68" rerouteNo="0" devices="tripinfo_CVToC.20 routing_CVToC.20 ssm_CVToC.20 toc_CVToC.20 driverstateCVToC.20" vType="vehLVOS799" speedFactor="0.88" vaporized=""/>
    <tripinfo id="LV.16" depart="63.20" departLane="entry_0" departPos="26.81" departSpeed="37.44" departDelay="13.40" arrival="227.70" arrivalLane="e0_1" arrivalPos="4800.00" arrivalSpeed="37.39" duration="164.50" routeLength="4973.19" waitingTime="0.00" waitingCount="0" stopTime="0.00" timeLoss="31.64" rerouteNo="0" devices="tripinfo_LV.16 routing_LV.16 ssm_LV.16" vType="vehLVOS918" speedFactor="1.04" vaporized=""/>
    <tripinfo id="CVToC.21" depart="66.50" departLane="entry_1" departPos="2.11" departSpeed="33.93" departDelay="12.50" arrival="229.30" arrivalLane="e0_1" arrivalPos="4800.00" arrivalSpeed="37.45" duration="162.80" routeLength="4997.89" waitingTime="0.00" waitingCount="0" stopTime="0.00" timeLoss="29.93" rerouteNo="0" devices="tripinfo_CVToC.21 routing_CVToC.21 ssm_CVToC.21 toc_CVToC.21 driverstateCVToC.21" vType="vehLVOS167" speedFactor="1.04" vaporized=""/>
    <tripinfo id="LV.11" depart="71.90" departLane="entry_1" departPos="4.57" departSpeed="47.54" departDelay="41.10" arrival="230.30" arrivalLane="e0_1" arrivalPos="4800.00" arrivalSpeed="38.93" duration="158.40" routeLength="4995.43" waitingTime="0.00" waitingCount="0" stopTime="0.00" timeLoss="53.26" rerouteNo="0" devices="tripinfo_LV.11 routing_LV.11 ssm_LV.11" vType="vehLVOS233" speedFactor="1.32" vaporized=""/>
    <tripinfo id="CAVToC.19" depart="73.60" departLane="entry_1" departPos="4.79" departSpeed="36.35" departDelay="13.50" arrival="233.10" arrivalLane="e0_0" arrivalPos="4800.00" arrivalSpeed="37.57" duration="159.50" routeLength="4995.21" waitingTime="0.00" waitingCount="0" stopTime="0.00" timeLoss="26.61" rerouteNo="0" devices="tripinfo_CAVToC.19 routing_CAVToC.19 ssm_CAVToC.19 toc_CAVToC.19 driverstateCAVToC.19" vType="vehLVOS583" speedFactor="1.04" vaporized=""/>
    <tripinfo id="LV.14" depart="74.20" departLane="entry_0" departPos="12.54" departSpeed="43.01" departDelay="33.00" arrival="233.70" arrivalLane="e0_1" arrivalPos="4800.00" arrivalSpeed="41.87" duration="159.50" routeLength="4987.46" waitingTime="0.00" waitingCount="0" stopTime="0.00" timeLoss="43.53" rerouteNo="0" devices="tripinfo_LV.14 routing_LV.14 ssm_LV.14" vType="vehLVOS310" speedFactor="1.19" vaporized=""/>
    <tripinfo id="LV.4" depart="71.80" departLane="entry_0" departPos="1.22" departSpeed="40.98" departDelay="53.90" arrival="236.10" arrivalLane="e0_1" arrivalPos="4800.00" arrivalSpeed="40.96" duration="164.30" routeLength="4998.78" waitingTime="0.00" waitingCount="0" stopTime="0.00" timeLoss="42.29" rerouteNo="0" devices="tripinfo_LV.4 routing_LV.4 ssm_LV.4" vType="vehLVOS720" speedFactor="1.13" vaporized=""/>
    <tripinfo id="LV.2" depart="10.20" departLane="entry_1" departPos="69.38" departSpeed="21.84" departDelay="0.00" arrival="236.20" arrivalLane="e0_0" arrivalPos="4800.00" arrivalSpeed="21.80" duration="226.00" routeLength="4930.62" waitingTime="0.00" waitingCount="0" stopTime="0.00" timeLoss="0.22" rerouteNo="0" devices="tripinfo_LV.2 routing_LV.2 ssm_LV.2" vType="vehLVOS719" speedFactor="0.60" vaporized=""/>
    <tripinfo id="CVToC.5" depart="13.90" departLane="entry_0" departPos="66.56" departSpeed="33.13" departDelay="0.20" arrival="238.00" arrivalLane="e0_0" arrivalPos="4800.00" arrivalSpeed="23.60" duration="224.10" routeLength="4933.44" waitingTime="0.00" waitingCount="0" stopTime="0.00" timeLoss="93.54" rerouteNo="0" devices="tripinfo_CVToC.5 routing_CVToC.5 ssm_CVToC.5 toc_CVToC.5 driverstateCVToC.5" vType="vehLVOS998" speedFactor="1.05" vaporized=""/>
    <tripinfo id="CAVToC.3" depart="19.70" departLane="entry_0" departPos="40.38" departSpeed="32.24" departDelay="0.00" arrival="239.00" arrivalLane="e0_0" arrivalPos="4800.00" arrivalSpeed="24.49" duration="219.30" routeLength="4959.62" waitingTime="0.00" waitingCount="0" stopTime="0.00" timeLoss="85.71" rerouteNo="0" devices="tripinfo_CAVToC.3 routing_CAVToC.3 ssm_CAVToC.3 toc_CAVToC.3 driverstateCAVToC.3" vType="vehLVOS517" speedFactor="1.03" vaporized=""/>
    <tripinfo id="CAVToC.4" depart="24.20" departLane="entry_0" departPos="3.66" departSpeed="32.92" departDelay="3.80" arrival="240.50" arrivalLane="e0_0" arrivalPos="4800.00" arrivalSpeed="25.40" duration="216.30" routeLength="4996.34" waitingTime="0.00" waitingCount="0" stopTime="0.00" timeLoss="64.75" rerouteNo="0" devices="tripinfo_CAVToC.4 routing_CAVToC.4 ssm_CAVToC.4 toc_CAVToC.4 driverstateCAVToC.4" vType="vehLVOS975" speedFactor="0.91" vaporized=""/>
    <tripinfo id="CAVToC.20" depart="78.70" departLane="entry_1" departPos="41.80" departSpeed="33.41" departDelay="17.60" arrival="240.90" arrivalLane="e0_1" arrivalPos="4800.00" arrivalSpeed="33.63" duration="162.20" routeLength="4958.20" waitingTime="0.00" waitingCount="0" stopTime="0.00" timeLoss="15.26" rerouteNo="0" devices="tripinfo_CAVToC.20 routing_CAVToC.20 ssm_CAVToC.20 toc_CAVToC.20 driverstateCAVToC.20" vType="vehLVOS621" speedFactor="0.93" vaporized=""/>
    <tripinfo id="CVToC.9" depart="27.10" departLane="entry_0" departPos="8.15" departSpeed="32.11" departDelay="2.30" arrival="241.70" arrivalLane="e0_0" arrivalPos="4800.00" arrivalSpeed="27.32" duration="214.60" routeLength="4991.85" waitingTime="0.00" waitingCount="0" stopTime="0.00" timeLoss="88.61" rerouteNo="0" devices="tripinfo_CVToC.9 routing_CVToC.9 ssm_CVToC.9 toc_CVToC.9 driverstateCVToC.9" vType="vehLVOS45" speedFactor="1.10" vaporized=""/>
    <tripinfo id="CVToC.25" depart="81.40" departLane="entry_1" departPos="3.39" departSpeed="32.47" departDelay="19.80" arrival="242.00" arrivalLane="e0_1" arrivalPos="4800.00" arrivalSpeed="35.95" duration="160.60" routeLength="4996.61" waitingTime="0.00" waitingCount="0" stopTime="0.00" timeLoss="25.84" rerouteNo="0" devices="tripinfo_CVToC.25 routing_CVToC.25 ssm_CVToC.25 toc_CVToC.25 driverstateCVToC.25" vType="vehLVOS156" speedFactor="1.03" vaporized=""/>
    <tripinfo id="CVToC.11" depart="30.80" departLane="entry_0" departPos="55.34" departSpeed="30.75" departDelay="0.70" arrival="243.00" arrivalLane="e0_0" arrivalPos="4800.00" arrivalSpeed="27.39" duration="212.20" routeLength="4944.66" waitingTime="0.00" waitingCount="0" stopTime="0.00" timeLoss="57.93" rerouteNo="0" devices="tripinfo_CVToC.11 routing_CVToC.11 ssm_CVToC.11 toc_CVToC.11 driverstateCVToC.11" vType="vehLVOS401" speedFactor="0.89" vaporized=""/>
    <tripinfo id="CVToC.26" depart="86.60" departLane="entry_1" departPos="81.45" departSpeed="33.55" departDelay="19.00" arrival="243.10" arrivalLane="e0_1" arrivalPos="4800.00" arrivalSpeed="36.87" duration="156.50" routeLength="4918.55" waitingTime="0.00" waitingCount="0" stopTime="0.00" timeLoss="39.26" rerouteNo="0" devices="tripinfo_CVToC.26 routing_CVToC.26 ssm_CVToC.26 toc_CVToC.26 driverstateCVToC.26" vType="vehLVOS952" speedFactor="1.16" vaporized=""/>
    <tripinfo id="CVToC.13" depart="32.60" departLane="entry_0" departPos="42.71" departSpeed="30.18" departDelay="0.60" arrival="244.20" arrivalLane="e0_0" arrivalPos="4800.00" arrivalSpeed="28.29" duration="211.60" routeLength="4957.29" waitingTime="0.00" waitingCount="0" stopTime="0.00" timeLoss="49.44" rerouteNo="0" devices="tripinfo_CVToC.13 routing_CVToC.13 ssm_CVToC.13 toc_CVToC.13 driverstateCVToC.13" vType="vehLVOS496" speedFactor="0.85" vaporized=""/>
    <tripinfo id="LV.19" depart="65.30" departLane="entry_1" departPos="43.46" departSpeed="33.58" departDelay="10.80" arrival="245.90" arrivalLane="e0_1" arrivalPos="4800.00" arrivalSpeed="33.56" duration="180.60" routeLength="4956.54" waitingTime="0.00" waitingCount="0" stopTime="0.00" timeLoss="32.94" rerouteNo="0" devices="tripinfo_LV.19 routing_LV.19 ssm_LV.19" vType="vehLVOS766" speedFactor="0.93" vaporized=""/>
    <tripinfo id="CAVToC.7" depart="34.90" departLane="entry_0" departPos="29.24" departSpeed="29.86" departDelay="0.10" arrival="246.20" arrivalLane="e0_0" arrivalPos="4800.00" arrivalSpeed="27.67" duration="211.30" routeLength="4970.76" waitingTime="0.00" waitingCount="0" stopTime="0.00" timeLoss="80.88" rerouteNo="0" devices="tripinfo_CAVToC.7 routing_CAVToC.7 ssm_CAVToC.7 toc_CAVToC.7 driverstateCAVToC.7" vType="vehLVOS660" speedFactor="1.06" vaporized=""/>
    <tripinfo id="CAVToC.8" depart="43.20" departLane="entry_0" departPos="114.69" departSpeed="30.78" departDelay="2.70" arrival="247.20" arrivalLane="e0_0" arrivalPos="4800.00" arrivalSpeed="28.94" duration="204.00" routeLength="4885.31" waitingTime="0.00" waitingCount="0" stopTime="0.00" timeLoss="61.71" rerouteNo="0" devices="tripinfo_CAVToC.8 routing_CAVToC.8 ssm_CAVToC.8 toc_CAVToC.8 driverstateCAVToC.8" vType="vehLVOS848" speedFactor="0.95" vaporized=""/>
    <tripinfo id="CVToC.16" depart="47.60" departLane="entry_1" departPos="11.81" departSpeed="29.39" departDelay="1.20" arrival="248.10" arrivalLane="e0_0" arrivalPos="4800.00" arrivalSpeed="27.97" duration="200.50" routeLength="4988.19" waitingTime="0.00" waitingCount="0" stopTime="0.00" timeLoss="36.18" rerouteNo="0" devices="tripinfo_CVToC.16 routing_CVToC.16 ssm_CVToC.16 toc_CVToC.16 driverstateCVToC.16" vType="vehLVOS146" speedFactor="0.84" vaporized=""/>
    <tripinfo id="CAVToC.26" depart="86.60" departLane="entry_1" departPos="11.49" departSpeed="32.65" departDelay="14.60" arrival="248.30" arrivalLane="e0_1" arrivalPos="4800.00" arrivalSpeed="32.61" duration="161.70" routeLength="4988.51" waitingTime="0.00" waitingCount="0" stopTime="0.00" timeLoss="8.91" rerouteNo="0" devices="tripinfo_CAVToC.26 routing_CAVToC.26 ssm_CAVToC.26 toc_CAVToC.26 driverstateCAVToC.26" vType="vehLVOS672" speedFactor="0.90" vaporized=""/>
    <tripinfo id="CAVToC.10" depart="49.40" departLane="entry_0" departPos="57.99" departSpeed="29.56" departDelay="6.60" arrival="250.50" arrivalLane="e0_0" arrivalPos="4800.00" arrivalSpeed="30.13" duration="201.10" routeLength="4942.01" waitingTime="0.00" waitingCount="0" stopTime="0.00" timeLoss="54.22" rerouteNo="0" devices="tripinfo_CAVToC.10 routing_CAVToC.10 ssm_CAVToC.10 toc_CAVToC.10 driverstateCAVToC.10" vType="vehLVOS545" speedFactor="0.93" vaporized=""/>
    <tripinfo id="CVToC.19" depart="50.90" departLane="entry_0" departPos="27.11" departSpeed="29.64" departDelay="2.30" arrival="252.10" arrivalLane="e0_0" arrivalPos="4800.00" arrivalSpeed="30.40" duration="201.20" routeLength="4972.89" waitingTime="0.00" waitingCount="0" stopTime="0.00" timeLoss="52.10" rerouteNo="0" devices="tripinfo_CVToC.19 routing_CVToC.19 ssm_CVToC.19 toc_CVToC.19 driverstateCVToC.19" vType="vehLVOS341" speedFactor="0.92" vaporized=""/>
    <tripinfo id="CVToC.24" depart="80.70" departLane="entry_0" departPos="9.68" departSpeed="33.98" departDelay="20.40" arrival="252.10" arrivalLane="e0_1" arrivalPos="4800.00" arrivalSpeed="36.82" duration="171.40" routeLength="4990.32" waitingTime="0.00" waitingCount="0" stopTime="0.00" timeLoss="42.05" rerouteNo="0" devices="tripinfo_CVToC.24 routing_CVToC.24 ssm_CVToC.24 toc_CVToC.24 driverstateCVToC.24" vType="vehLVOS919" speedFactor="1.07" vaporized=""/>