<?xml version="1.0" encoding="UTF-8"?>

<!-- generated on Mon Jul 27 10:35:08 2020 by Eclipse SUMO Version v1_6_0+0553-a03471b
<configuration xmlns:xsi="http://www.w3.org/2001/XMLSchema-instance" xsi:noNamespaceSchemaLocation="http://sumo.dlr.de/xsd/sumoConfiguration.xsd">

    <input>
        <net-file value="scenario/UC5_1.net.xml"/>
        <route-files value="scenario/routes_trafficMix_0_trafficDemand_1_driverBehaviour_OS_seed_0.xml"/>
        <additional-files value="scenario/additionalsOutput_trafficMix_0_trafficDemand_1_driverBehaviour_OS_seed_0.xml,scenario/vTypesCAVToC_OS.add.xml,scenario/vTypesCVToC_OS.add.xml,scenario/vTypesLV_OS.add.xml,scenario/shapes.add.xml,scenario/view.add.xml"/>
    </input>

    <output>
        <tripinfo-output value="/home/noul_ar/workspace/tor-distribution/outputs/simulations/bad_test_2.zip_20200727-100032/tripinfo_4.xml"/>
    </output>

    <time>
        <step-length value="0.1"/>
    </time>

    <processing>
        <step-method.ballistic value="true"/>
        <ignore-route-errors value="true"/>
        <lanechange.duration value="2.5"/>
    </processing>

    <report>
        <no-step-log value="true"/>
    </report>

    <toc_device>
        <device.toc.ogNewTimeHeadway value="100"/>
        <device.toc.ogNewSpaceHeadway value="5"/>
        <device.toc.ogMaxDecel value="1"/>
        <device.toc.ogChangeRate value="1"/>
    </toc_device>

    <traci_server>
        <remote-port value="43609"/>
    </traci_server>

    <random_number>
        <seed value="1028"/>
    </random_number>

    <gui_only>
        <tracker-interval value="0.1"/>
    </gui_only>

</configuration>
-->

<tripinfos xmlns:xsi="http://www.w3.org/2001/XMLSchema-instance" xsi:noNamespaceSchemaLocation="http://sumo.dlr.de/xsd/tripinfo_file.xsd">
    <tripinfo id="CAVToC.0" depart="0.20" departLane="entry_1" departPos="199.90" departSpeed="28.35" departDelay="0.00" arrival="169.70" arrivalLane="e0_1" arrivalPos="4800.00" arrivalSpeed="28.34" duration="169.50" routeLength="4800.10" waitingTime="0.00" waitingCount="0" stopTime="0.00" timeLoss="0.15" rerouteNo="0" devices="tripinfo_CAVToC.0 routing_CAVToC.0 ssm_CAVToC.0 toc_CAVToC.0 driverstateCAVToC.0" vType="vehLVOS604" speedFactor="0.79" vaporized=""/>
    <tripinfo id="CVToC.0" depart="2.30" departLane="entry_1" departPos="182.66" departSpeed="29.18" departDelay="0.00" arrival="171.20" arrivalLane="e0_1" arrivalPos="4800.00" arrivalSpeed="31.67" duration="168.90" routeLength="4817.34" waitingTime="0.00" waitingCount="0" stopTime="0.00" timeLoss="33.75" rerouteNo="0" devices="tripinfo_CVToC.0 routing_CVToC.0 ssm_CVToC.0 toc_CVToC.0 driverstateCVToC.0" vType="vehLVOS424" speedFactor="0.99" vaporized=""/>
    <tripinfo id="CAVToC.1" depart="3.30" departLane="entry_0" departPos="199.90" departSpeed="35.90" departDelay="0.00" arrival="171.40" arrivalLane="e0_0" arrivalPos="4800.00" arrivalSpeed="31.08" duration="168.10" routeLength="4800.10" waitingTime="0.00" waitingCount="0" stopTime="0.00" timeLoss="34.37" rerouteNo="0" devices="tripinfo_CAVToC.1 routing_CAVToC.1 ssm_CAVToC.1 toc_CAVToC.1 driverstateCAVToC.1" vType="vehLVOS753" speedFactor="0.99" vaporized=""/>
    <tripinfo id="CVToC.2" depart="4.10" departLane="entry_0" departPos="165.29" departSpeed="30.10" departDelay="0.00" arrival="173.40" arrivalLane="e0_0" arrivalPos="4800.00" arrivalSpeed="30.09" duration="169.30" routeLength="4834.71" waitingTime="0.00" waitingCount="0" stopTime="0.00" timeLoss="8.64" rerouteNo="0" devices="tripinfo_CVToC.2 routing_CVToC.2 ssm_CVToC.2 toc_CVToC.2 driverstateCVToC.2" vType="vehLVOS819" speedFactor="0.83" vaporized=""/>
    <tripinfo id="CVToC.1" depart="3.00" departLane="entry_1" departPos="127.75" departSpeed="29.79" departDelay="0.00" arrival="173.50" arrivalLane="e0_1" arrivalPos="4800.00" arrivalSpeed="34.50" duration="170.50" routeLength="4872.25" waitingTime="0.00" waitingCount="0" stopTime="0.00" timeLoss="30.22" rerouteNo="0" devices="tripinfo_CVToC.1 routing_CVToC.1 ssm_CVToC.1 toc_CVToC.1 driverstateCVToC.1" vType="vehLVOS230" speedFactor="0.96" vaporized=""/>
    <tripinfo id="CAVToC.2" depart="3.40" departLane="entry_1" departPos="75.20" departSpeed="29.93" departDelay="0.00" arrival="175.10" arrivalLane="e0_1" arrivalPos="4800.00" arrivalSpeed="30.47" duration="171.70" routeLength="4924.80" waitingTime="0.00" waitingCount="0" stopTime="0.00" timeLoss="10.21" rerouteNo="0" devices="tripinfo_CAVToC.2 routing_CAVToC.2 ssm_CAVToC.2 toc_CAVToC.2 driverstateCAVToC.2" vType="vehLVOS461" speedFactor="0.84" vaporized=""/>
    <tripinfo id="CVToC.3" depart="4.50" departLane="entry_0" departPos="104.47" departSpeed="30.70" departDelay="0.00" arrival="176.30" arrivalLane="e0_0" arrivalPos="4800.00" arrivalSpeed="32.30" duration="171.80" routeLength="4895.53" waitingTime="0.00" waitingCount="0" stopTime="0.00" timeLoss="32.78" rerouteNo="0" devices="tripinfo_CVToC.3 routing_CVToC.3 ssm_CVToC.3 toc_CVToC.3 driverstateCVToC.3" vType="vehLVOS162" speedFactor="0.98" vaporized=""/>
    <tripinfo id="LV.1" depart="5.90" departLane="entry_1" departPos="36.98" departSpeed="37.34" departDelay="0.00" arrival="176.40" arrivalLane="e0_1" arrivalPos="4800.00" arrivalSpeed="32.94" duration="170.50" routeLength="4963.02" waitingTime="0.00" waitingCount="0" stopTime="0.00" timeLoss="37.60" rerouteNo="0" devices="tripinfo_LV.1 routing_LV.1 ssm_LV.1" vType="vehLVOS936" speedFactor="1.03" vaporized=""/>
    <tripinfo id="LV.0" depart="5.70" departLane="entry_0" departPos="78.08" departSpeed="35.18" departDelay="0.00" arrival="177.20" arrivalLane="e0_0" arrivalPos="4800.00" arrivalSpeed="33.02" duration="171.50" routeLength="4921.92" waitingTime="0.00" waitingCount="0" stopTime="0.00" timeLoss="31.55" rerouteNo="0" devices="tripinfo_LV.0 routing_LV.0 ssm_LV.0" vType="vehLVOS40" speedFactor="0.97" vaporized=""/>
    <tripinfo id="CVToC.5" depart="7.60" departLane="entry_1" departPos="36.38" departSpeed="29.24" departDelay="0.00" arrival="178.20" arrivalLane="e0_1" arrivalPos="4800.00" arrivalSpeed="29.24" duration="170.60" routeLength="4963.62" waitingTime="0.00" waitingCount="0" stopTime="0.00" timeLoss="0.80" rerouteNo="0" devices="tripinfo_CVToC.5 routing_CVToC.5 ssm_CVToC.5 toc_CVToC.5 driverstateCVToC.5" vType="vehLVOS424" speedFactor="0.81" vaporized=""/>
    <tripinfo id="CVToC.4" depart="6.80" departLane="entry_0" departPos="44.40" departSpeed="34.75" departDelay="0.20" arrival="180.20" arrivalLane="e0_0" arrivalPos="4800.00" arrivalSpeed="32.11" duration="173.40" routeLength="4955.60" waitingTime="0.00" waitingCount="0" stopTime="0.00" timeLoss="30.90" rerouteNo="0" devices="tripinfo_CVToC.4 routing_CVToC.4 ssm_CVToC.4 toc_CVToC.4 driverstateCVToC.4" vType="vehLVOS821" speedFactor="0.96" vaporized=""/>
    <tripinfo id="CAVToC.3" depart="9.30" departLane="entry_1" departPos="3.35" departSpeed="30.14" departDelay="1.20" arrival="181.60" arrivalLane="e0_1" arrivalPos="4800.00" arrivalSpeed="34.64" duration="172.30" routeLength="4996.65" waitingTime="0.00" waitingCount="0" stopTime="0.00" timeLoss="36.89" rerouteNo="0" devices="tripinfo_CAVToC.3 routing_CAVToC.3 ssm_CAVToC.3 toc_CAVToC.3 driverstateCAVToC.3" vType="vehLVOS832" speedFactor="1.02" vaporized=""/>
    <tripinfo id="CAVToC.4" depart="12.10" departLane="entry_1" departPos="8.36" departSpeed="30.62" departDelay="3.00" arrival="183.40" arrivalLane="e0_1" arrivalPos="4800.00" arrivalSpeed="35.08" duration="171.30" routeLength="4991.64" waitingTime="0.00" waitingCount="0" stopTime="0.00" timeLoss="28.99" rerouteNo="0" devices="tripinfo_CAVToC.4 routing_CAVToC.4 ssm_CAVToC.4 toc_CAVToC.4 driverstateCAVToC.4" vType="vehLVOS225" speedFactor="0.97" vaporized=""/>
    <tripinfo id="CVToC.6" depart="8.10" departLane="entry_0" departPos="1.41" departSpeed="34.99" departDelay="0.20" arrival="184.00" arrivalLane="e0_0" arrivalPos="4800.00" arrivalSpeed="33.31" duration="175.90" routeLength="4998.59" waitingTime="0.00" waitingCount="0" stopTime="0.00" timeLoss="54.10" rerouteNo="0" devices="tripinfo_CVToC.6 routing_CVToC.6 ssm_CVToC.6 toc_CVToC.6 driverstateCVToC.6" vType="vehLVOS879" speedFactor="1.14" vaporized=""/>
    <tripinfo id="LV.4" depart="19.00" departLane="entry_1" departPos="5.15" departSpeed="44.20" departDelay="0.60" arrival="184.70" arrivalLane="e0_1" arrivalPos="4800.00" arrivalSpeed="35.38" duration="165.70" routeLength="4994.85" waitingTime="0.00" waitingCount="0" stopTime="0.00" timeLoss="52.65" rerouteNo="0" devices="tripinfo_LV.4 routing_LV.4 ssm_LV.4" vType="vehLVOS394" speedFactor="1.22" vaporized=""/>
    <tripinfo id="CVToC.8" depart="10.70" departLane="entry_0" departPos="3.17" departSpeed="29.37" departDelay="1.10" arrival="185.00" arrivalLane="e0_0" arrivalPos="4800.00" arrivalSpeed="34.15" duration="174.30" routeLength="4996.83" waitingTime="0.00" waitingCount="0" stopTime="0.00" timeLoss="38.30" rerouteNo="0" devices="tripinfo_CVToC.8 routing_CVToC.8 ssm_CVToC.8 toc_CVToC.8 driverstateCVToC.8" vType="vehLVOS813" speedFactor="1.02" vaporized=""/>
    <tripinfo id="LV.2" depart="14.00" departLane="entry_1" departPos="1.27" departSpeed="34.54" departDelay="1.40" arrival="186.00" arrivalLane="e0_0" arrivalPos="4800.00" arrivalSpeed="34.52" duration="172.00" routeLength="4998.73" waitingTime="0.00" waitingCount="0" stopTime="0.00" timeLoss="27.19" rerouteNo="0" devices="tripinfo_LV.2 routing_LV.2 ssm_LV.2" vType="vehLVOS870" speedFactor="0.96" vaporized=""/>
    <tripinfo id="LV.3" depart="20.90" departLane="entry_1" departPos="1.61" departSpeed="42.58" departDelay="5.00" arrival="186.40" arrivalLane="e0_1" arrivalPos="4800.00" arrivalSpeed="37.58" duration="165.50" routeLength="4998.39" waitingTime="0.00" waitingCount="0" stopTime="0.00" timeLoss="48.04" rerouteNo="0" devices="tripinfo_LV.3 routing_LV.3 ssm_LV.3" vType="vehLVOS55" speedFactor="1.18" vaporized=""/>
    <tripinfo id="CVToC.7" depart="13.70" departLane="entry_0" departPos="2.64" departSpeed="28.71" departDelay="4.70" arrival="186.90" arrivalLane="e0_0" arrivalPos="4800.00" arrivalSpeed="33.78" duration="173.20" routeLength="4997.36" waitingTime="0.00" waitingCount="0" stopTime="0.00" timeLoss="41.65" rerouteNo="0" devices="tripinfo_CVToC.7 routing_CVToC.7 ssm_CVToC.7 toc_CVToC.7 driverstateCVToC.7" vType="vehLVOS69" speedFactor="1.05" vaporized=""/>
    <tripinfo id="CAVToC.7" depart="23.60" departLane="entry_1" departPos="41.45" departSpeed="35.92" departDelay="0.10" arrival="187.70" arrivalLane="e0_1" arrivalPos="4800.00" arrivalSpeed="35.89" duration="164.10" routeLength="4958.55" waitingTime="0.00" waitingCount="0" stopTime="0.00" timeLoss="26.01" rerouteNo="0" devices="tripinfo_CAVToC.7 routing_CAVToC.7 ssm_CAVToC.7 toc_CAVToC.7 driverstateCAVToC.7" vType="vehLVOS121" speedFactor="0.99" vaporized=""/>
    <tripinfo id="CAVToC.6" depart="22.30" departLane="entry_0" departPos="2.09" departSpeed="31.63" departDelay="2.00" arrival="188.90" arrivalLane="e0_1" arrivalPos="4800.00" arrivalSpeed="35.65" duration="166.60" routeLength="4997.91" waitingTime="0.00" waitingCount="0" stopTime="0.00" timeLoss="40.61" rerouteNo="0" devices="tripinfo_CAVToC.6 routing_CAVToC.6 ssm_CAVToC.6 toc_CAVToC.6 driverstateCAVToC.6" vType="vehLVOS250" speedFactor="1.10" vaporized=""/>
    <tripinfo id="CAVToC.5" depart="16.70" departLane="entry_0" departPos="0.21" departSpeed="29.34" departDelay="4.80" arrival="189.30" arrivalLane="e0_0" arrivalPos="4800.00" arrivalSpeed="35.70" duration="172.60" routeLength="4999.79" waitingTime="0.00" waitingCount="0" stopTime="0.00" timeLoss="43.53" rerouteNo="0" devices="tripinfo_CAVToC.5 routing_CAVToC.5 ssm_CAVToC.5 toc_CAVToC.5 driverstateCAVToC.5" vType="vehLVOS82" speedFactor="1.07" vaporized=""/>
    <tripinfo id="CVToC.9" depart="19.60" departLane="entry_0" departPos="8.23" departSpeed="30.23" departDelay="1.00" arrival="190.50" arrivalLane="e0_0" arrivalPos="4800.00" arrivalSpeed="33.32" duration="170.90" routeLength="4991.77" waitingTime="0.00" waitingCount="0" stopTime="0.00" timeLoss="26.83" rerouteNo="0" devices="tripinfo_CVToC.9 routing_CVToC.9 ssm_CVToC.9 toc_CVToC.9 driverstateCVToC.9" vType="vehLVOS41" speedFactor="0.96" vaporized=""/>
    <tripinfo id="CAVToC.10" depart="27.50" departLane="entry_1" departPos="31.05" departSpeed="28.89" departDelay="0.00" arrival="191.40" arrivalLane="e0_1" arrivalPos="4800.00" arrivalSpeed="33.91" duration="163.90" routeLength="4968.95" waitingTime="0.00" waitingCount="0" stopTime="0.00" timeLoss="21.20" rerouteNo="0" devices="tripinfo_CAVToC.10 routing_CAVToC.10 ssm_CAVToC.10 toc_CAVToC.10 driverstateCAVToC.10" vType="vehLVOS211" speedFactor="0.96" vaporized=""/>
    <tripinfo id="CVToC.11" depart="29.20" departLane="entry_1" departPos="1.93" departSpeed="29.60" departDelay="0.60" arrival="193.90" arrivalLane="e0_1" arrivalPos="4800.00" arrivalSpeed="35.83" duration="164.70" routeLength="4998.07" waitingTime="0.00" waitingCount="0" stopTime="0.00" timeLoss="25.26" rerouteNo="0" devices="tripinfo_CVToC.11 routing_CVToC.11 ssm_CVToC.11 toc_CVToC.11 driverstateCVToC.11" vType="vehLVOS743" speedFactor="0.99" vaporized=""/>
    <tripinfo id="CVToC.12" depart="31.70" departLane="entry_1" departPos="4.20" departSpeed="29.83" departDelay="2.40" arrival="194.90" arrivalLane="e0_0" arrivalPos="4800.00" arrivalSpeed="32.43" duration="163.20" routeLength="4995.80" waitingTime="0.00" waitingCount="0" stopTime="0.00" timeLoss="9.21" rerouteNo="0" devices="tripinfo_CVToC.12 routing_CVToC.12 ssm_CVToC.12 toc_CVToC.12 driverstateCVToC.12" vType="vehLVOS27" speedFactor="0.90" vaporized=""/>
    <tripinfo id="CVToC.14" depart="33.90" departLane="entry_1" departPos="0.08" departSpeed="30.14" departDelay="2.10" arrival="197.20" arrivalLane="e0_1" arrivalPos="4800.00" arrivalSpeed="33.61" duration="163.30" routeLength="4999.92" waitingTime="0.00" waitingCount="0" stopTime="0.00" timeLoss="14.54" rerouteNo="0" devices="tripinfo_CVToC.14 routing_CVToC.14 ssm_CVToC.14 toc_CVToC.14 driverstateCVToC.14" vType="vehLVOS328" speedFactor="0.93" vaporized=""/>
    <tripinfo id="LV.6" depart="36.60" departLane="entry_1" departPos="20.80" departSpeed="31.52" departDelay="1.30" arrival="201.00" arrivalLane="e0_1" arrivalPos="4800.00" arrivalSpeed="31.49" duration="164.40" routeLength="4979.20" waitingTime="0.00" waitingCount="0" stopTime="0.00" timeLoss="6.39" rerouteNo="0" devices="tripinfo_LV.6 routing_LV.6 ssm_LV.6" vType="vehLVOS286" speedFactor="0.87" vaporized=""/>
    <tripinfo id="CVToC.10" depart="25.90" departLane="entry_1" departPos="62.87" departSpeed="28.10" departDelay="0.00" arrival="201.80" arrivalLane="e0_0" arrivalPos="4800.00" arrivalSpeed="28.07" duration="175.90" routeLength="4937.13" waitingTime="0.00" waitingCount="0" stopTime="0.00" timeLoss="0.17" rerouteNo="0" devices="tripinfo_CVToC.10 routing_CVToC.10 ssm_CVToC.10 toc_CVToC.10 driverstateCVToC.10" vType="vehLVOS555" speedFactor="0.78" vaporized=""/>
    <tripinfo id="CAVToC.8" depart="24.30" departLane="entry_0" departPos="0.11" departSpeed="29.45" departDelay="0.40" arrival="203.60" arrivalLane="e0_0" arrivalPos="4800.00" arrivalSpeed="29.37" duration="179.30" routeLength="4999.89" waitingTime="0.00" waitingCount="0" stopTime="0.00" timeLoss="9.46" rerouteNo="0" devices="tripinfo_CAVToC.8 routing_CAVToC.8 ssm_CAVToC.8 toc_CAVToC.8 driverstateCAVToC.8" vType="vehLVOS938" speedFactor="0.82" vaporized=""/>
    <tripinfo id="CVToC.15" depart="38.90" departLane="entry_1" departPos="6.18" departSpeed="31.89" departDelay="5.90" arrival="203.70" arrivalLane="e0_1" arrivalPos="4800.00" arrivalSpeed="38.19" duration="164.80" routeLength="4993.82" waitingTime="0.00" waitingCount="0" stopTime="0.00" timeLoss="38.45" rerouteNo="0" devices="tripinfo_CVToC.15 routing_CVToC.15 ssm_CVToC.15 toc_CVToC.15 driverstateCVToC.15" vType="vehLVOS444" speedFactor="1.09" vaporized=""/>
    <tripinfo id="CAVToC.9" depart="27.00" departLane="entry_0" departPos="0.33" departSpeed="28.92" departDelay="0.00" arrival="204.50" arrivalLane="e0_0" arrivalPos="4800.00" arrivalSpeed="31.49" duration="177.50" routeLength="4999.67" waitingTime="0.00" waitingCount="0" stopTime="0.00" timeLoss="34.88" rerouteNo="0" devices="tripinfo_CAVToC.9 routing_CAVToC.9 ssm_CAVToC.9 toc_CAVToC.9 driverstateCAVToC.9" vType="vehLVOS159" speedFactor="0.97" vaporized=""/>
    <tripinfo id="CVToC.19" depart="41.50" departLane="entry_1" departPos="3.77" departSpeed="32.32" departDelay="1.80" arrival="205.00" arrivalLane="e0_1" arrivalPos="4800.00" arrivalSpeed="38.47" duration="163.50" routeLength="4996.23" waitingTime="0.00" waitingCount="0" stopTime="0.00" timeLoss="36.31" rerouteNo="0" devices="tripinfo_CVToC.19 routing_CVToC.19 ssm_CVToC.19 toc_CVToC.19 driverstateCVToC.19" vType="vehLVOS795" speedFactor="1.09" vaporized=""/>
    <tripinfo id="CAVToC.15" depart="43.70" departLane="entry_1" departPos="2.64" departSpeed="32.15" departDelay="1.60" arrival="207.00" arrivalLane="e0_1" arrivalPos="4800.00" arrivalSpeed="32.96" duration="163.30" routeLength="4997.36" waitingTime="0.00" waitingCount="0" stopTime="0.00" timeLoss="11.72" rerouteNo="0" devices="tripinfo_CAVToC.15 routing_CAVToC.15 ssm_CAVToC.15 toc_CAVToC.15 driverstateCAVToC.15" vType="vehLVOS489" speedFactor="0.91" vaporized=""/>
    <tripinfo id="LV.7" depart="43.20" departLane="entry_0" departPos="1.13" departSpeed="33.61" departDelay="7.00" arrival="210.00" arrivalLane="e0_1" arrivalPos="4800.00" arrivalSpeed="33.60" duration="166.80" routeLength="4998.87" waitingTime="0.00" waitingCount="0" stopTime="0.00" timeLoss="18.05" rerouteNo="0" devices="tripinfo_LV.7 routing_LV.7 ssm_LV.7" vType="vehLVOS690" speedFactor="0.93" vaporized=""/>
    <tripinfo id="CAVToC.13" depart="46.40" departLane="entry_1" departPos="20.12" departSpeed="31.57" departDelay="9.20" arrival="211.80" arrivalLane="e0_1" arrivalPos="4800.00" arrivalSpeed="31.55" duration="165.40" routeLength="4979.88" waitingTime="0.00" waitingCount="0" stopTime="0.00" timeLoss="7.62" rerouteNo="0" devices="tripinfo_CAVToC.13 routing_CAVToC.13 ssm_CAVToC.13 toc_CAVToC.13 driverstateCAVToC.13" vType="vehLVOS11" speedFactor="0.87" vaporized=""/>
    <tripinfo id="CAVToC.11" depart="29.30" departLane="entry_0" departPos="5.98" departSpeed="28.00" departDelay="0.10" arrival="212.00" arrivalLane="e0_0" arrivalPos="4800.00" arrivalSpeed="27.97" duration="182.70" routeLength="4994.02" waitingTime="0.00" waitingCount="0" stopTime="0.00" timeLoss="4.32" rerouteNo="0" devices="tripinfo_CAVToC.11 routing_CAVToC.11 ssm_CAVToC.11 toc_CAVToC.11 driverstateCAVToC.11" vType="vehLVOS127" speedFactor="0.78" vaporized=""/>
    <tripinfo id="CVToC.18" depart="49.20" departLane="entry_1" departPos="25.62" departSpeed="32.17" departDelay="9.70" arrival="213.00" arrivalLane="e0_1" arrivalPos="4800.00" arrivalSpeed="33.32" duration="163.80" routeLength="4974.38" waitingTime="0.00" waitingCount="0" stopTime="0.00" timeLoss="31.99" rerouteNo="0" devices="tripinfo_CVToC.18 routing_CVToC.18 ssm_CVToC.18 toc_CVToC.18 driverstateCVToC.18" vType="vehLVOS403" speedFactor="1.05" vaporized=""/>
    <tripinfo id="CVToC.13" depart="31.80" departLane="entry_0" departPos="2.36" departSpeed="28.74" departDelay="1.00" arrival="213.70" arrivalLane="e0_0" arrivalPos="4800.00" arrivalSpeed="32.09" duration="181.90" routeLength="4997.64" waitingTime="0.00" waitingCount="0" stopTime="0.00" timeLoss="36.48" rerouteNo="0" devices="tripinfo_CVToC.13 routing_CVToC.13 ssm_CVToC.13 toc_CVToC.13 driverstateCVToC.13" vType="vehLVOS582" speedFactor="0.95" vaporized=""/>
    <tripinfo id="CAVToC.12" depart="34.60" departLane="entry_0" departPos="1.21" departSpeed="29.57" departDelay="5.30" arrival="215.00" arrivalLane="e0_0" arrivalPos="4800.00" arrivalSpeed="33.30" duration="180.40" routeLength="4998.79" waitingTime="0.00" waitingCount="0" stopTime="0.00" timeLoss="46.36" rerouteNo="0" devices="tripinfo_CAVToC.12 routing_CAVToC.12 ssm_CAVToC.12 toc_CAVToC.12 driverstateCAVToC.12" vType="vehLVOS78" speedFactor="1.03" vaporized=""/>
    <tripinfo id="CVToC.21" depart="51.20" departLane="entry_1" departPos="6.14" departSpeed="32.58" departDelay="6.20" arrival="215.20" arrivalLane="e0_1" arrivalPos="4800.00" arrivalSpeed="37.44" duration="164.00" routeLength="4993.86" waitingTime="0.00" waitingCount="0" stopTime="0.00" timeLoss="30.56" rerouteNo="0" devices="tripinfo_CVToC.21 routing_CVToC.21 ssm_CVToC.21 toc_CVToC.21 driverstateCVToC.21" vType="vehLVOS236" speedFactor="1.04" vaporized=""/>
    <tripinfo id="CVToC.16" depart="37.60" departLane="entry_0" departPos="4.96" departSpeed="30.32" departDelay="1.60" arrival="216.80" arrivalLane="e0_0" arrivalPos="4800.00" arrivalSpeed="31.26" duration="179.20" routeLength="4995.04" waitingTime="0.00" waitingCount="0" stopTime="0.00" timeLoss="46.84" rerouteNo="0" devices="tripinfo_CVToC.16 routing_CVToC.16 ssm_CVToC.16 toc_CVToC.16 driverstateCVToC.16" vType="vehLVOS700" speedFactor="1.05" vaporized=""/>
    <tripinfo id="CVToC.17" depart="41.00" departLane="entry_0" departPos="32.30" departSpeed="29.94" departDelay="2.20" arrival="218.50" arrivalLane="e0_0" arrivalPos="4800.00" arrivalSpeed="34.34" duration="177.50" routeLength="4967.70" waitingTime="0.00" waitingCount="0" stopTime="0.00" timeLoss="39.40" rerouteNo="0" devices="tripinfo_CVToC.17 routing_CVToC.17 ssm_CVToC.17 toc_CVToC.17 driverstateCVToC.17" vType="vehLVOS292" speedFactor="1.00" vaporized=""/>
    <tripinfo id="CAVToC.14" depart="46.10" departLane="entry_0" departPos="22.50" departSpeed="31.75" departDelay="8.60" arrival="220.20" arrivalLane="e0_0" arrivalPos="4800.00" arrivalSpeed="31.97" duration="174.10" routeLength="4977.50" waitingTime="0.00" waitingCount="0" stopTime="0.00" timeLoss="22.85" rerouteNo="0" devices="tripinfo_CAVToC.14 routing_CAVToC.14 ssm_CAVToC.14 toc_CAVToC.14 driverstateCAVToC.14" vType="vehLVOS662" speedFactor="0.91" vaporized=""/>
    <tripinfo id="CVToC.23" depart="55.80" departLane="entry_1" departPos="90.84" departSpeed="30.72" departDelay="10.60" arrival="221.50" arrivalLane="e0_1" arrivalPos="4800.00" arrivalSpeed="30.68" duration="165.70" routeLength="4909.16" waitingTime="0.00" waitingCount="0" stopTime="0.00" timeLoss="5.84" rerouteNo="0" devices="tripinfo_CVToC.23 routing_CVToC.23 ssm_CVToC.23 toc_CVToC.23 driverstateCVToC.23" vType="vehLVOS249" speedFactor="0.85" vaporized=""/>
    <tripinfo id="CVToC.20" depart="48.30" departLane="entry_0" departPos="8.79" departSpeed="32.28" departDelay="6.90" arrival="222.50" arrivalLane="e0_0" arrivalPos="4800.00" arrivalSpeed="31.08" duration="174.20" routeLength="4991.21" waitingTime="0.00" waitingCount="0" stopTime="0.00" timeLoss="46.34" rerouteNo="0" devices="tripinfo_CVToC.20 routing_CVToC.20 ssm_CVToC.20 toc_CVToC.20 driverstateCVToC.20" vType="vehLVOS248" speedFactor="1.08" vaporized=""/>
    <tripinfo id="CVToC.24" depart="55.80" departLane="entry_1" departPos="18.25" departSpeed="31.19" departDelay="9.70" arrival="223.20" arrivalLane="e0_1" arrivalPos="4800.00" arrivalSpeed="34.45" duration="167.40" routeLength="4981.75" waitingTime="0.00" waitingCount="0" stopTime="0.00" timeLoss="22.81" rerouteNo="0" devices="tripinfo_CVToC.24 routing_CVToC.24 ssm_CVToC.24 toc_CVToC.24 driverstateCVToC.24" vType="vehLVOS437" speedFactor="0.95" vaporized=""/>
    <tripinfo id="CVToC.25" depart="58.00" departLane="entry_1" departPos="2.58" departSpeed="32.06" departDelay="9.40" arrival="224.00" arrivalLane="e0_1" arrivalPos="4800.00" arrivalSpeed="33.45" duration="166.00" routeLength="4997.42" waitingTime="0.00" waitingCount="0" stopTime="0.00" timeLoss="40.70" rerouteNo="0" devices="tripinfo_CVToC.25 routing_CVToC.25 ssm_CVToC.25 toc_CVToC.25 driverstateCVToC.25" vType="vehLVOS13" speedFactor="1.10" vaporized=""/>
    <tripinfo id="CAVToC.16" depart="50.60" departLane="entry_0" departPos="0.14" departSpeed="32.38" departDelay="8.20" arrival="224.20" arrivalLane="e0_0" arrivalPos="4800.00" arrivalSpeed="33.53" duration="173.60" routeLength="4999.86" waitingTime="0.00" waitingCount="0" stopTime="0.00" timeLoss="42.97" rerouteNo="0" devices="tripinfo_CAVToC.16 routing_CAVToC.16 ssm_CAVToC.16 toc_CAVToC.16 driverstateCAVToC.16" vType="vehLVOS921" speedFactor="1.06" vaporized=""/>
    <tripinfo id="CAVToC.19" depart="61.20" departLane="entry_1" departPos="9.40" departSpeed="33.09" departDelay="11.50" arrival="226.60" arrivalLane="e0_1" arrivalPos="4800.00" arrivalSpeed="34.88" duration="165.40" routeLength="4990.60" waitingTime="0.00" waitingCount="0" stopTime="0.00" timeLoss="48.99" rerouteNo="0" devices="tripinfo_CAVToC.19 routing_CAVToC.19 ssm_CAVToC.19 toc_CAVToC.19 driverstateCAVToC.19" vType="vehLVOS153" speedFactor="1.19" vaporized=""/>
    <tripinfo id="CVToC.27" depart="64.50" departLane="entry_1" departPos="36.03" departSpeed="33.49" departDelay="7.50" arrival="228.10" arrivalLane="e0_0" arrivalPos="4800.00" arrivalSpeed="37.23" duration="163.60" routeLength="4963.97" waitingTime="0.00" waitingCount="0" stopTime="0.00" timeLoss="36.55" rerouteNo="0" devices="tripinfo_CVToC.27 routing_CVToC.27 ssm_CVToC.27 toc_CVToC.27 driverstateCVToC.27" vType="vehLVOS60" speedFactor="1.08" vaporized=""/>
    <tripinfo id="LV.10" depart="60.90" departLane="entry_0" departPos="38.62" departSpeed="31.28" departDelay="7.70" arrival="229.50" arrivalLane="e0_0" arrivalPos="4800.00" arrivalSpeed="31.23" duration="168.60" routeLength="4961.38" waitingTime="0.00" waitingCount="0" stopTime="0.00" timeLoss="9.95" rerouteNo="0" devices="tripinfo_LV.10 routing_LV.10 ssm_LV.10" vType="vehLVOS517" speedFactor="0.87" vaporized=""/>
    <tripinfo id="CVToC.22" depart="54.30" departLane="entry_0" departPos="31.14" departSpeed="32.68" departDelay="9.20" arrival="230.90" arrivalLane="e0_1" arrivalPos="4800.00" arrivalSpeed="40.36" duration="176.60" routeLength="4968.86" waitingTime="0.00" waitingCount="0" stopTime="0.00" timeLoss="53.63" rerouteNo="0" devices="tripinfo_CVToC.22 routing_CVToC.22 ssm_CVToC.22 toc_CVToC.22 driverstateCVToC.22" vType="vehLVOS901" speedFactor="1.12" vaporized=""/>
    <tripinfo id="CAVToC.20" depart="66.00" departLane="entry_1" departPos="10.61" departSpeed="33.53" departDelay="13.60" arrival="232.30" arrivalLane="e0_1" arrivalPos="4800.00" arrivalSpeed="34.22" duration="166.30" routeLength="4989.39" waitingTime="0.00" waitingCount="0" stopTime="0.00" timeLoss="20.47" rerouteNo="0" devices="tripinfo_CAVToC.20 routing_CAVToC.20 ssm_CAVToC.20 toc_CAVToC.20 driverstateCAVToC.20" vType="vehLVOS348" speedFactor="0.95" vaporized=""/>
    <tripinfo id="CAVToC.17" depart="56.60" departLane="entry_0" departPos="25.56" departSpeed="31.38" departDelay="11.10" arrival="239.30" arrivalLane="e0_0" arrivalPos="4800.00" arrivalSpeed="31.96" duration="182.70" routeLength="4974.44" waitingTime="0.00" waitingCount="0" stopTime="0.00" timeLoss="44.83" rerouteNo="0" devices="tripinfo_CAVToC.17 routing_CAVToC.17 ssm_CAVToC.17 toc_CAVToC.17 driverstateCAVToC.17" vType="vehLVOS87" speedFactor="1.00" vaporized=""/>
    <tripinfo id="LV.13" depart="69.30" departLane="entry_1" departPos="40.93" departSpeed="31.99" departDelay="8.20" arrival="239.30" arrivalLane="e0_1" arrivalPos="4800.00" arrivalSpeed="31.87" duration="170.00" routeLength="4959.07" waitingTime="0.00" waitingCount="0" stopTime="0.00" timeLoss="14.94" rerouteNo="0" devices="tripinfo_LV.13 routing_LV.13 ssm_LV.13" vType="vehLVOS192" speedFactor="0.89" vaporized=""/>
    <tripinfo id="CVToC.30" depart="70.30" departLane="entry_1" departPos="2.24" departSpeed="31.57" departDelay="8.70" arrival="246.40" arrivalLane="e0_0" arrivalPos="4800.00" arrivalSpeed="33.97" duration="176.10" routeLength="4997.76" waitingTime="0.00" waitingCount="0" stopTime="0.00" timeLoss="28.98" rerouteNo="0" devices="tripinfo_CVToC.30 routing_CVToC.30 ssm_CVToC.30 toc_CVToC.30 driverstateCVToC.30" vType="vehLVOS186" speedFactor="0.94" vaporized=""/>
    <tripinfo id="LV.11" depart="64.60" departLane="entry_0" departPos="32.64" departSpeed="30.23" departDelay="9.80" arrival="248.30" arrivalLane="e0_0" arrivalPos="4800.00" arrivalSpeed="30.14" duration="183.70" routeLength="4967.36" waitingTime="0.00" waitingCount="0" stopTime="0.00" timeLoss="19.31" rerouteNo="0" devices="tripinfo_LV.11 routing_LV.11 ssm_LV.11" vType="vehLVOS933" speedFactor="0.84" vaporized=""/>
    <tripinfo id="CAVToC.23" depart="74.10" departLane="entry_1" departPos="53.28" departSpeed="30.84" departDelay="14.40" arrival="249.30" arrivalLane="e0_1" arrivalPos="4800.00" arrivalSpeed="31.03" duration="175.20" routeLength="4946.72" waitingTime="0.00" waitingCount="0" stopTime="0.00" timeLoss="15.78" rerouteNo="0" devices="tripinfo_CAVToC.23 routing_CAVToC.23 ssm_CAVToC.23 toc_CAVToC.23 driverstateCAVToC.23" vType="vehLVOS945" speedFactor="0.86" vaporized=""/>
    <tripinfo id="LV.12" depart="69.30" departLane="entry_1" departPos="113.14" departSpeed="29.10" departDelay="9.70" arrival="250.00" arrivalLane="e0_0" arrivalPos="4800.00" arrivalSpeed="29.08" duration="180.70" routeLength="4886.86" waitingTime="0.00" waitingCount="0" stopTime="0.00" timeLoss="12.74" rerouteNo="0" devices="tripinfo_LV.12 routing_LV.12 ssm_LV.12" vType="vehLVOS916" speedFactor="0.81" vaporized=""/>
    <tripinfo id="CVToC.32" depart="75.00" departLane="entry_1" departPos="5.31" departSpeed="31.17" departDelay="12.50" arrival="250.40" arrivalLane="e0_1" arrivalPos="4800.00" arrivalSpeed="33.12" duration="175.40" routeLength="4994.69" waitingTime="0.00" waitingCount="0" stopTime="0.00" timeLoss="27.61" rerouteNo="0" devices="tripinfo_CVToC.32 routing_CVToC.32 ssm_CVToC.32 toc_CVToC.32 driverstateCVToC.32" vType="vehLVOS897" speedFactor="0.94" vaporized=""/>