<?xml version="1.0" encoding="UTF-8"?>

<!-- generated on Mon Jul 27 10:49:15 2020 by Eclipse SUMO Version v1_6_0+0553-a03471b
<configuration xmlns:xsi="http://www.w3.org/2001/XMLSchema-instance" xsi:noNamespaceSchemaLocation="http://sumo.dlr.de/xsd/sumoConfiguration.xsd">

    <input>
        <net-file value="scenario/UC5_1.net.xml"/>
        <route-files value="scenario/routes_trafficMix_0_trafficDemand_1_driverBehaviour_OS_seed_0.xml"/>
        <additional-files value="scenario/additionalsOutput_trafficMix_0_trafficDemand_1_driverBehaviour_OS_seed_0.xml,scenario/vTypesCAVToC_OS.add.xml,scenario/vTypesCVToC_OS.add.xml,scenario/vTypesLV_OS.add.xml,scenario/shapes.add.xml,scenario/view.add.xml"/>
    </input>

    <output>
        <tripinfo-output value="/home/noul_ar/workspace/tor-distribution/outputs/simulations/bad_test_2.zip_20200727-100032/tripinfo_5.xml"/>
    </output>

    <time>
        <step-length value="0.1"/>
    </time>

    <processing>
        <step-method.ballistic value="true"/>
        <ignore-route-errors value="true"/>
        <lanechange.duration value="2.5"/>
    </processing>

    <report>
        <no-step-log value="true"/>
    </report>

    <toc_device>
        <device.toc.ogNewTimeHeadway value="100"/>
        <device.toc.ogNewSpaceHeadway value="5"/>
        <device.toc.ogMaxDecel value="1"/>
        <device.toc.ogChangeRate value="1"/>
    </toc_device>

    <traci_server>
        <remote-port value="48461"/>
    </traci_server>

    <random_number>
        <seed value="1029"/>
    </random_number>

    <gui_only>
        <tracker-interval value="0.1"/>
    </gui_only>

</configuration>
-->

<tripinfos xmlns:xsi="http://www.w3.org/2001/XMLSchema-instance" xsi:noNamespaceSchemaLocation="http://sumo.dlr.de/xsd/tripinfo_file.xsd">
    <tripinfo id="CVToC.0" depart="6.40" departLane="entry_0" departPos="199.90" departSpeed="40.78" departDelay="0.00" arrival="124.30" arrivalLane="e0_0" arrivalPos="4800.00" arrivalSpeed="40.78" duration="117.90" routeLength="4800.10" waitingTime="0.00" waitingCount="0" stopTime="0.00" timeLoss="0.17" rerouteNo="0" devices="tripinfo_CVToC.0 routing_CVToC.0 ssm_CVToC.0 toc_CVToC.0 driverstateCVToC.0" vType="vehLVOS899" speedFactor="1.13" vaporized=""/>
    <tripinfo id="CVToC.1" depart="7.60" departLane="entry_1" departPos="199.90" departSpeed="33.37" departDelay="0.00" arrival="151.70" arrivalLane="e0_1" arrivalPos="4800.00" arrivalSpeed="33.30" duration="144.10" routeLength="4800.10" waitingTime="0.00" waitingCount="0" stopTime="0.00" timeLoss="0.19" rerouteNo="0" devices="tripinfo_CVToC.1 routing_CVToC.1 ssm_CVToC.1 toc_CVToC.1 driverstateCVToC.1" vType="vehLVOS940" speedFactor="0.92" vaporized=""/>
    <tripinfo id="CVToC.2" depart="8.10" departLane="entry_0" departPos="192.80" departSpeed="36.48" departDelay="0.00" arrival="152.30" arrivalLane="e0_0" arrivalPos="4800.00" arrivalSpeed="34.30" duration="144.20" routeLength="4807.20" waitingTime="0.00" waitingCount="0" stopTime="0.00" timeLoss="12.38" rerouteNo="0" devices="tripinfo_CVToC.2 routing_CVToC.2 ssm_CVToC.2 toc_CVToC.2 driverstateCVToC.2" vType="vehLVOS335" speedFactor="1.01" vaporized=""/>
    <tripinfo id="CVToC.3" depart="11.40" departLane="entry_1" departPos="199.90" departSpeed="35.18" departDelay="0.00" arrival="152.60" arrivalLane="e0_1" arrivalPos="4800.00" arrivalSpeed="34.32" duration="141.20" routeLength="4800.10" waitingTime="0.00" waitingCount="0" stopTime="0.00" timeLoss="4.69" rerouteNo="0" devices="tripinfo_CVToC.3 routing_CVToC.3 ssm_CVToC.3 toc_CVToC.3 driverstateCVToC.3" vType="vehLVOS495" speedFactor="0.97" vaporized=""/>
    <tripinfo id="CVToC.4" depart="11.60" departLane="entry_0" departPos="199.90" departSpeed="34.89" departDelay="0.00" arrival="153.30" arrivalLane="e0_0" arrivalPos="4800.00" arrivalSpeed="34.80" duration="141.70" routeLength="4800.10" waitingTime="0.00" waitingCount="0" stopTime="0.00" timeLoss="4.02" rerouteNo="0" devices="tripinfo_CVToC.4 routing_CVToC.4 ssm_CVToC.4 toc_CVToC.4 driverstateCVToC.4" vType="vehLVOS660" speedFactor="0.97" vaporized=""/>
    <tripinfo id="CVToC.5" depart="12.80" departLane="entry_0" departPos="99.57" departSpeed="34.90" departDelay="0.00" arrival="155.60" arrivalLane="e0_1" arrivalPos="4800.00" arrivalSpeed="34.86" duration="142.80" routeLength="4900.43" waitingTime="0.00" waitingCount="0" stopTime="0.00" timeLoss="2.32" rerouteNo="0" devices="tripinfo_CVToC.5 routing_CVToC.5 ssm_CVToC.5 toc_CVToC.5 driverstateCVToC.5" vType="vehLVOS939" speedFactor="0.97" vaporized=""/>
    <tripinfo id="CAVToC.0" depart="11.90" departLane="entry_0" departPos="138.90" departSpeed="35.02" departDelay="0.00" arrival="156.00" arrivalLane="e0_0" arrivalPos="4800.00" arrivalSpeed="35.17" duration="144.10" routeLength="4861.10" waitingTime="0.00" waitingCount="0" stopTime="0.00" timeLoss="5.89" rerouteNo="0" devices="tripinfo_CAVToC.0 routing_CAVToC.0 ssm_CAVToC.0 toc_CAVToC.0 driverstateCAVToC.0" vType="vehLVOS675" speedFactor="0.97" vaporized=""/>
    <tripinfo id="CAVToC.1" depart="14.70" departLane="entry_1" departPos="82.74" departSpeed="35.43" departDelay="0.00" arrival="156.40" arrivalLane="e0_1" arrivalPos="4800.00" arrivalSpeed="35.97" duration="141.70" routeLength="4917.26" waitingTime="0.00" waitingCount="0" stopTime="0.00" timeLoss="16.07" rerouteNo="0" devices="tripinfo_CAVToC.1 routing_CAVToC.1 ssm_CAVToC.1 toc_CAVToC.1 driverstateCAVToC.1" vType="vehLVOS358" speedFactor="1.08" vaporized=""/>
    <tripinfo id="CAVToC.2" depart="15.00" departLane="entry_0" departPos="86.03" departSpeed="35.69" departDelay="0.00" arrival="158.40" arrivalLane="e0_0" arrivalPos="4800.00" arrivalSpeed="37.71" duration="143.40" routeLength="4913.97" waitingTime="0.00" waitingCount="0" stopTime="0.00" timeLoss="25.19" rerouteNo="0" devices="tripinfo_CAVToC.2 routing_CAVToC.2 ssm_CAVToC.2 toc_CAVToC.2 driverstateCAVToC.2" vType="vehLVOS879" speedFactor="1.15" vaporized=""/>
    <tripinfo id="LV.0" depart="17.20" departLane="entry_0" departPos="8.98" departSpeed="43.56" departDelay="0.40" arrival="158.40" arrivalLane="e0_1" arrivalPos="4800.00" arrivalSpeed="38.11" duration="141.20" routeLength="4991.02" waitingTime="0.00" waitingCount="0" stopTime="0.00" timeLoss="26.62" rerouteNo="0" devices="tripinfo_LV.0 routing_LV.0 ssm_LV.0" vType="vehLVOS518" speedFactor="1.21" vaporized=""/>
    <tripinfo id="CAVToC.7" depart="22.00" departLane="entry_1" departPos="6.45" departSpeed="31.13" departDelay="0.10" arrival="160.30" arrivalLane="e0_1" arrivalPos="4800.00" arrivalSpeed="39.21" duration="138.30" routeLength="4993.55" waitingTime="0.00" waitingCount="0" stopTime="0.00" timeLoss="23.26" rerouteNo="0" devices="tripinfo_CAVToC.7 routing_CAVToC.7 ssm_CAVToC.7 toc_CAVToC.7 driverstateCAVToC.7" vType="vehLVOS224" speedFactor="1.20" vaporized=""/>
    <tripinfo id="CAVToC.3" depart="15.60" departLane="entry_1" departPos="39.44" departSpeed="34.09" departDelay="0.00" arrival="164.40" arrivalLane="e0_0" arrivalPos="4800.00" arrivalSpeed="34.07" duration="148.80" routeLength="4960.56" waitingTime="0.00" waitingCount="0" stopTime="0.00" timeLoss="3.27" rerouteNo="0" devices="tripinfo_CAVToC.3 routing_CAVToC.3 ssm_CAVToC.3 toc_CAVToC.3 driverstateCAVToC.3" vType="vehLVOS705" speedFactor="0.94" vaporized=""/>
    <tripinfo id="CAVToC.4" depart="17.20" departLane="entry_1" departPos="26.40" departSpeed="33.23" departDelay="0.00" arrival="169.60" arrivalLane="e0_0" arrivalPos="4800.00" arrivalSpeed="33.20" duration="152.40" routeLength="4973.60" waitingTime="0.00" waitingCount="0" stopTime="0.00" timeLoss="2.73" rerouteNo="0" devices="tripinfo_CAVToC.4 routing_CAVToC.4 ssm_CAVToC.4 toc_CAVToC.4 driverstateCAVToC.4" vType="vehLVOS162" speedFactor="0.92" vaporized=""/>
    <tripinfo id="CAVToC.5" depart="20.90" departLane="entry_1" departPos="68.37" departSpeed="29.71" departDelay="0.00" arrival="175.80" arrivalLane="e0_0" arrivalPos="4800.00" arrivalSpeed="32.48" duration="154.90" routeLength="4931.63" waitingTime="0.00" waitingCount="0" stopTime="0.00" timeLoss="3.31" rerouteNo="0" devices="tripinfo_CAVToC.5 routing_CAVToC.5 ssm_CAVToC.5 toc_CAVToC.5 driverstateCAVToC.5" vType="vehLVOS907" speedFactor="0.90" vaporized=""/>
    <tripinfo id="LV.3" depart="22.80" departLane="entry_0" departPos="4.45" departSpeed="33.01" departDelay="0.20" arrival="180.20" arrivalLane="e0_0" arrivalPos="4800.00" arrivalSpeed="32.99" duration="157.40" routeLength="4995.55" waitingTime="0.00" waitingCount="0" stopTime="0.00" timeLoss="6.03" rerouteNo="0" devices="tripinfo_LV.3 routing_LV.3 ssm_LV.3" vType="vehLVOS870" speedFactor="0.91" vaporized=""/>
    <tripinfo id="CAVToC.8" depart="27.20" departLane="entry_1" departPos="25.78" departSpeed="31.25" departDelay="0.00" arrival="183.10" arrivalLane="e0_1" arrivalPos="4800.00" arrivalSpeed="33.12" duration="155.90" routeLength="4974.22" waitingTime="0.00" waitingCount="0" stopTime="0.00" timeLoss="5.79" rerouteNo="0" devices="tripinfo_CAVToC.8 routing_CAVToC.8 ssm_CAVToC.8 toc_CAVToC.8 driverstateCAVToC.8" vType="vehLVOS471" speedFactor="0.92" vaporized=""/>
    <tripinfo id="CAVToC.9" depart="29.40" departLane="entry_1" departPos="13.80" departSpeed="31.90" departDelay="0.50" arrival="184.80" arrivalLane="e0_1" arrivalPos="4800.00" arrivalSpeed="34.81" duration="155.40" routeLength="4986.20" waitingTime="0.00" waitingCount="0" stopTime="0.00" timeLoss="25.79" rerouteNo="0" devices="tripinfo_CAVToC.9 routing_CAVToC.9 ssm_CAVToC.9 toc_CAVToC.9 driverstateCAVToC.9" vType="vehLVOS750" speedFactor="1.07" vaporized=""/>
    <tripinfo id="LV.2" depart="20.40" departLane="entry_1" departPos="125.15" departSpeed="29.31" departDelay="0.00" arrival="188.00" arrivalLane="e0_0" arrivalPos="4800.00" arrivalSpeed="29.30" duration="167.60" routeLength="4874.85" waitingTime="0.00" waitingCount="0" stopTime="0.00" timeLoss="1.22" rerouteNo="0" devices="tripinfo_LV.2 routing_LV.2 ssm_LV.2" vType="vehLVOS419" speedFactor="0.81" vaporized=""/>
    <tripinfo id="CAVToC.10" depart="33.90" departLane="entry_1" departPos="1.27" departSpeed="30.68" departDelay="4.10" arrival="188.00" arrivalLane="e0_1" arrivalPos="4800.00" arrivalSpeed="38.76" duration="154.10" routeLength="4998.73" waitingTime="0.00" waitingCount="0" stopTime="0.00" timeLoss="25.44" rerouteNo="0" devices="tripinfo_CAVToC.10 routing_CAVToC.10 ssm_CAVToC.10 toc_CAVToC.10 driverstateCAVToC.10" vType="vehLVOS998" speedFactor="1.08" vaporized=""/>
    <tripinfo id="CVToC.6" depart="24.10" departLane="entry_1" departPos="1.66" departSpeed="31.20" departDelay="1.00" arrival="189.60" arrivalLane="e0_0" arrivalPos="4800.00" arrivalSpeed="32.39" duration="165.50" routeLength="4998.34" waitingTime="0.00" waitingCount="0" stopTime="0.00" timeLoss="11.27" rerouteNo="0" devices="tripinfo_CVToC.6 routing_CVToC.6 ssm_CVToC.6 toc_CVToC.6 driverstateCVToC.6" vType="vehLVOS168" speedFactor="0.90" vaporized=""/>
    <tripinfo id="CVToC.11" depart="37.20" departLane="entry_1" departPos="12.27" departSpeed="31.68" departDelay="5.00" arrival="190.90" arrivalLane="e0_1" arrivalPos="4800.00" arrivalSpeed="41.36" duration="153.70" routeLength="4987.73" waitingTime="0.00" waitingCount="0" stopTime="0.00" timeLoss="33.01" rerouteNo="0" devices="tripinfo_CVToC.11 routing_CVToC.11 ssm_CVToC.11 toc_CVToC.11 driverstateCVToC.11" vType="vehLVOS162" speedFactor="1.15" vaporized=""/>
    <tripinfo id="CVToC.13" depart="39.50" departLane="entry_1" departPos="1.41" departSpeed="32.19" departDelay="3.80" arrival="193.40" arrivalLane="e0_1" arrivalPos="4800.00" arrivalSpeed="37.27" duration="153.90" routeLength="4998.59" waitingTime="0.00" waitingCount="0" stopTime="0.00" timeLoss="20.01" rerouteNo="0" devices="tripinfo_CVToC.13 routing_CVToC.13 ssm_CVToC.13 toc_CVToC.13 driverstateCVToC.13" vType="vehLVOS537" speedFactor="1.03" vaporized=""/>
    <tripinfo id="CAVToC.11" depart="31.40" departLane="entry_1" departPos="14.84" departSpeed="29.60" departDelay="0.80" arrival="201.30" arrivalLane="e0_0" arrivalPos="4800.00" arrivalSpeed="29.55" duration="169.90" routeLength="4985.16" waitingTime="0.00" waitingCount="0" stopTime="0.00" timeLoss="1.47" rerouteNo="0" devices="tripinfo_CAVToC.11 routing_CAVToC.11 ssm_CAVToC.11 toc_CAVToC.11 driverstateCAVToC.11" vType="vehLVOS476" speedFactor="0.82" vaporized=""/>
    <tripinfo id="CAVToC.14" depart="44.80" departLane="entry_1" departPos="25.38" departSpeed="30.47" departDelay="8.30" arrival="208.50" arrivalLane="e0_1" arrivalPos="4800.00" arrivalSpeed="34.93" duration="163.70" routeLength="4974.62" waitingTime="0.00" waitingCount="0" stopTime="0.00" timeLoss="21.28" rerouteNo="0" devices="tripinfo_CAVToC.14 routing_CAVToC.14 ssm_CAVToC.14 toc_CAVToC.14 driverstateCAVToC.14" vType="vehLVOS903" speedFactor="0.97" vaporized=""/>
    <tripinfo id="CVToC.16" depart="47.20" departLane="entry_1" departPos="25.27" departSpeed="30.80" departDelay="6.80" arrival="209.80" arrivalLane="e0_1" arrivalPos="4800.00" arrivalSpeed="33.79" duration="162.60" routeLength="4974.73" waitingTime="0.00" waitingCount="0" stopTime="0.00" timeLoss="15.62" rerouteNo="0" devices="tripinfo_CVToC.16 routing_CVToC.16 ssm_CVToC.16 toc_CVToC.16 driverstateCVToC.16" vType="vehLVOS319" speedFactor="0.94" vaporized=""/>
    <tripinfo id="CAVToC.15" depart="41.80" departLane="entry_1" departPos="13.68" departSpeed="29.84" departDelay="3.80" arrival="210.10" arrivalLane="e0_0" arrivalPos="4800.00" arrivalSpeed="29.83" duration="168.30" routeLength="4986.32" waitingTime="0.00" waitingCount="0" stopTime="0.00" timeLoss="1.13" rerouteNo="0" devices="tripinfo_CAVToC.15 routing_CAVToC.15 ssm_CAVToC.15 toc_CAVToC.15 driverstateCAVToC.15" vType="vehLVOS676" speedFactor="0.83" vaporized=""/>
    <tripinfo id="CVToC.18" depart="49.20" departLane="entry_1" departPos="12.33" departSpeed="31.17" departDelay="5.90" arrival="212.70" arrivalLane="e0_1" arrivalPos="4800.00" arrivalSpeed="34.55" duration="163.50" routeLength="4987.67" waitingTime="0.00" waitingCount="0" stopTime="0.00" timeLoss="19.27" rerouteNo="0" devices="tripinfo_CVToC.18 routing_CVToC.18 ssm_CVToC.18 toc_CVToC.18 driverstateCVToC.18" vType="vehLVOS265" speedFactor="0.96" vaporized=""/>
    <tripinfo id="CVToC.19" depart="51.60" departLane="entry_1" departPos="4.31" departSpeed="31.70" departDelay="5.60" arrival="214.10" arrivalLane="e0_1" arrivalPos="4800.00" arrivalSpeed="36.24" duration="162.50" routeLength="4995.69" waitingTime="0.00" waitingCount="0" stopTime="0.00" timeLoss="26.45" rerouteNo="0" devices="tripinfo_CVToC.19 routing_CVToC.19 ssm_CVToC.19 toc_CVToC.19 driverstateCVToC.19" vType="vehLVOS443" speedFactor="1.02" vaporized=""/>
    <tripinfo id="LV.1" depart="18.90" departLane="entry_0" departPos="71.16" departSpeed="25.27" departDelay="0.00" arrival="214.20" arrivalLane="e0_0" arrivalPos="4800.00" arrivalSpeed="25.23" duration="195.30" routeLength="4928.84" waitingTime="0.00" waitingCount="0" stopTime="0.00" timeLoss="0.17" rerouteNo="0" devices="tripinfo_LV.1 routing_LV.1 ssm_LV.1" vType="vehLVOS909" speedFactor="0.70" vaporized=""/>
    <tripinfo id="CVToC.21" depart="54.30" departLane="entry_1" departPos="16.60" departSpeed="31.89" departDelay="5.10" arrival="215.20" arrivalLane="e0_1" arrivalPos="4800.00" arrivalSpeed="34.42" duration="160.90" routeLength="4983.40" waitingTime="0.00" waitingCount="0" stopTime="0.00" timeLoss="16.41" rerouteNo="0" devices="tripinfo_CVToC.21 routing_CVToC.21 ssm_CVToC.21 toc_CVToC.21 driverstateCVToC.21" vType="vehLVOS432" speedFactor="0.96" vaporized=""/>
    <tripinfo id="CAVToC.6" depart="21.70" departLane="entry_0" departPos="52.53" departSpeed="26.77" departDelay="0.00" arrival="216.40" arrivalLane="e0_0" arrivalPos="4800.00" arrivalSpeed="29.74" duration="194.70" routeLength="4947.47" waitingTime="0.00" waitingCount="0" stopTime="0.00" timeLoss="67.81" rerouteNo="0" devices="tripinfo_CAVToC.6 routing_CAVToC.6 ssm_CAVToC.6 toc_CAVToC.6 driverstateCAVToC.6" vType="vehLVOS533" speedFactor="1.08" vaporized=""/>
    <tripinfo id="CVToC.7" depart="25.60" departLane="entry_0" departPos="6.69" departSpeed="31.92" departDelay="1.10" arrival="218.40" arrivalLane="e0_0" arrivalPos="4800.00" arrivalSpeed="30.68" duration="192.80" routeLength="4993.31" waitingTime="0.00" waitingCount="0" stopTime="0.00" timeLoss="71.39" rerouteNo="0" devices="tripinfo_CVToC.7 routing_CVToC.7 ssm_CVToC.7 toc_CVToC.7 driverstateCVToC.7" vType="vehLVOS534" speedFactor="1.14" vaporized=""/>
    <tripinfo id="CVToC.22" depart="57.00" departLane="entry_1" departPos="15.65" departSpeed="32.76" departDelay="5.40" arrival="218.60" arrivalLane="e0_1" arrivalPos="4800.00" arrivalSpeed="38.48" duration="161.60" routeLength="4984.35" waitingTime="0.00" waitingCount="0" stopTime="0.00" timeLoss="42.91" rerouteNo="0" devices="tripinfo_CVToC.22 routing_CVToC.22 ssm_CVToC.22 toc_CVToC.22 driverstateCVToC.22" vType="vehLVOS804" speedFactor="1.16" vaporized=""/>
    <tripinfo id="CVToC.8" depart="28.10" departLane="entry_0" departPos="0.66" departSpeed="29.08" departDelay="0.40" arrival="219.90" arrivalLane="e0_0" arrivalPos="4800.00" arrivalSpeed="31.62" duration="191.80" routeLength="4999.34" waitingTime="0.00" waitingCount="0" stopTime="0.00" timeLoss="56.31" rerouteNo="0" devices="tripinfo_CVToC.8 routing_CVToC.8 ssm_CVToC.8 toc_CVToC.8 driverstateCVToC.8" vType="vehLVOS255" speedFactor="1.02" vaporized=""/>
    <tripinfo id="CAVToC.17" depart="59.30" departLane="entry_1" departPos="4.76" departSpeed="27.30" departDelay="5.60" arrival="220.70" arrivalLane="e0_1" arrivalPos="4800.00" arrivalSpeed="34.34" duration="161.40" routeLength="4995.24" waitingTime="0.00" waitingCount="0" stopTime="0.00" timeLoss="16.05" rerouteNo="0" devices="tripinfo_CAVToC.17 routing_CAVToC.17 ssm_CAVToC.17 toc_CAVToC.17 driverstateCAVToC.17" vType="vehLVOS557" speedFactor="0.95" vaporized=""/>
    <tripinfo id="CVToC.9" depart="30.90" departLane="entry_0" departPos="4.93" departSpeed="28.43" departDelay="1.50" arrival="221.70" arrivalLane="e0_0" arrivalPos="4800.00" arrivalSpeed="33.61" duration="190.80" routeLength="4995.07" waitingTime="0.00" waitingCount="0" stopTime="0.00" timeLoss="43.20" rerouteNo="0" devices="tripinfo_CVToC.9 routing_CVToC.9 ssm_CVToC.9 toc_CVToC.9 driverstateCVToC.9" vType="vehLVOS158" speedFactor="0.94" vaporized=""/>
    <tripinfo id="CAVToC.16" depart="56.00" departLane="entry_0" departPos="16.73" departSpeed="28.71" departDelay="6.90" arrival="223.40" arrivalLane="e0_1" arrivalPos="4800.00" arrivalSpeed="34.31" duration="167.40" routeLength="4983.27" waitingTime="0.00" waitingCount="0" stopTime="0.00" timeLoss="22.38" rerouteNo="0" devices="tripinfo_CAVToC.16 routing_CAVToC.16 ssm_CAVToC.16 toc_CAVToC.16 driverstateCAVToC.16" vType="vehLVOS137" speedFactor="0.95" vaporized=""/>
    <tripinfo id="CVToC.10" depart="33.50" departLane="entry_0" departPos="11.60" departSpeed="28.95" departDelay="2.70" arrival="223.50" arrivalLane="e0_0" arrivalPos="4800.00" arrivalSpeed="30.07" duration="190.00" routeLength="4988.40" waitingTime="0.00" waitingCount="0" stopTime="0.00" timeLoss="24.09" rerouteNo="0" devices="tripinfo_CVToC.10 routing_CVToC.10 ssm_CVToC.10 toc_CVToC.10 driverstateCVToC.10" vType="vehLVOS735" speedFactor="0.83" vaporized=""/>
    <tripinfo id="CVToC.24" depart="62.90" departLane="entry_1" departPos="14.15" departSpeed="28.44" departDelay="3.40" arrival="226.60" arrivalLane="e0_1" arrivalPos="4800.00" arrivalSpeed="38.77" duration="163.70" routeLength="4985.85" waitingTime="0.00" waitingCount="0" stopTime="0.00" timeLoss="35.41" rerouteNo="0" devices="tripinfo_CVToC.24 routing_CVToC.24 ssm_CVToC.24 toc_CVToC.24 driverstateCVToC.24" vType="vehLVOS309" speedFactor="1.08" vaporized=""/>
    <tripinfo id="CAVToC.12" depart="36.50" departLane="entry_0" departPos="15.20" departSpeed="30.52" departDelay="4.10" arrival="227.10" arrivalLane="e0_0" arrivalPos="4800.00" arrivalSpeed="37.62" duration="190.60" routeLength="4984.80" waitingTime="0.00" waitingCount="0" stopTime="0.00" timeLoss="63.87" rerouteNo="0" devices="tripinfo_CAVToC.12 routing_CAVToC.12 ssm_CAVToC.12 toc_CAVToC.12 driverstateCAVToC.12" vType="vehLVOS472" speedFactor="1.09" vaporized=""/>
    <tripinfo id="CVToC.20" depart="52.90" departLane="entry_0" departPos="6.13" departSpeed="28.36" departDelay="5.90" arrival="227.50" arrivalLane="e0_1" arrivalPos="4800.00" arrivalSpeed="36.52" duration="174.60" routeLength="4993.87" waitingTime="0.00" waitingCount="0" stopTime="0.00" timeLoss="38.11" rerouteNo="0" devices="tripinfo_CVToC.20 routing_CVToC.20 ssm_CVToC.20 toc_CVToC.20 driverstateCVToC.20" vType="vehLVOS82" speedFactor="1.01" vaporized=""/>
    <tripinfo id="CVToC.12" depart="38.60" departLane="entry_0" departPos="2.41" departSpeed="31.13" departDelay="4.40" arrival="228.20" arrivalLane="e0_0" arrivalPos="4800.00" arrivalSpeed="35.61" duration="189.60" routeLength="4997.59" waitingTime="0.00" waitingCount="0" stopTime="0.00" timeLoss="49.34" rerouteNo="0" devices="tripinfo_CVToC.12 routing_CVToC.12 ssm_CVToC.12 toc_CVToC.12 driverstateCVToC.12" vType="vehLVOS297" speedFactor="0.99" vaporized=""/>
    <tripinfo id="CAVToC.19" depart="67.50" departLane="entry_1" departPos="53.69" departSpeed="30.32" departDelay="10.60" arrival="228.90" arrivalLane="e0_1" arrivalPos="4800.00" arrivalSpeed="37.37" duration="161.40" routeLength="4946.31" waitingTime="0.00" waitingCount="0" stopTime="0.00" timeLoss="38.98" rerouteNo="0" devices="tripinfo_CAVToC.19 routing_CAVToC.19 ssm_CAVToC.19 toc_CAVToC.19 driverstateCAVToC.19" vType="vehLVOS479" speedFactor="1.12" vaporized=""/>
    <tripinfo id="CVToC.15" depart="46.90" departLane="entry_0" departPos="8.96" departSpeed="26.64" departDelay="7.70" arrival="229.40" arrivalLane="e0_0" arrivalPos="4800.00" arrivalSpeed="35.82" duration="182.50" routeLength="4991.04" waitingTime="0.00" waitingCount="0" stopTime="0.00" timeLoss="43.42" rerouteNo="0" devices="tripinfo_CVToC.15 routing_CVToC.15 ssm_CVToC.15 toc_CVToC.15 driverstateCVToC.15" vType="vehLVOS96" speedFactor="0.99" vaporized=""/>
    <tripinfo id="LV.5" depart="70.10" departLane="entry_0" departPos="16.07" departSpeed="41.37" departDelay="36.30" arrival="230.10" arrivalLane="e0_1" arrivalPos="4800.00" arrivalSpeed="38.13" duration="160.00" routeLength="4983.93" waitingTime="0.00" waitingCount="0" stopTime="0.00" timeLoss="39.47" rerouteNo="0" devices="tripinfo_LV.5 routing_LV.5 ssm_LV.5" vType="vehLVOS315" speedFactor="1.15" vaporized=""/>
    <tripinfo id="CVToC.25" depart="69.10" departLane="entry_1" departPos="23.84" departSpeed="31.58" departDelay="3.30" arrival="230.90" arrivalLane="e0_0" arrivalPos="4800.00" arrivalSpeed="36.23" duration="161.80" routeLength="4976.16" waitingTime="0.00" waitingCount="0" stopTime="0.00" timeLoss="24.47" rerouteNo="0" devices="tripinfo_CVToC.25 routing_CVToC.25 ssm_CVToC.25 toc_CVToC.25 driverstateCVToC.25" vType="vehLVOS494" speedFactor="1.00" vaporized=""/>
    <tripinfo id="CVToC.26" depart="72.20" departLane="entry_1" departPos="24.79" departSpeed="34.60" departDelay="5.30" arrival="231.30" arrivalLane="e0_1" arrivalPos="4800.00" arrivalSpeed="39.06" duration="159.10" routeLength="4975.21" waitingTime="0.00" waitingCount="0" stopTime="0.00" timeLoss="49.99" rerouteNo="0" devices="tripinfo_CVToC.26 routing_CVToC.26 ssm_CVToC.26 toc_CVToC.26 driverstateCVToC.26" vType="vehLVOS525" speedFactor="1.26" vaporized=""/>
    <tripinfo id="CVToC.27" depart="76.10" departLane="entry_1" departPos="5.86" departSpeed="32.57" departDelay="2.50" arrival="238.20" arrivalLane="e0_1" arrivalPos="4800.00" arrivalSpeed="34.88" duration="162.10" routeLength="4994.14" waitingTime="0.00" waitingCount="0" stopTime="0.00" timeLoss="19.16" rerouteNo="0" devices="tripinfo_CVToC.27 routing_CVToC.27 ssm_CVToC.27 toc_CVToC.27 driverstateCVToC.27" vType="vehLVOS969" speedFactor="0.97" vaporized=""/>
    <tripinfo id="CAVToC.23" depart="73.80" departLane="entry_1" departPos="6.87" departSpeed="32.19" departDelay="2.30" arrival="238.80" arrivalLane="e0_0" arrivalPos="4800.00" arrivalSpeed="32.16" duration="165.00" routeLength="4993.13" waitingTime="0.00" waitingCount="0" stopTime="0.00" timeLoss="9.84" rerouteNo="0" devices="tripinfo_CAVToC.23 routing_CAVToC.23 ssm_CAVToC.23 toc_CAVToC.23 driverstateCAVToC.23" vType="vehLVOS570" speedFactor="0.89" vaporized=""/>
    <tripinfo id="LV.4" depart="74.90" departLane="entry_0" departPos="1.99" departSpeed="36.28" departDelay="44.20" arrival="241.70" arrivalLane="e0_1" arrivalPos="4800.00" arrivalSpeed="36.23" duration="166.80" routeLength="4998.01" waitingTime="0.00" waitingCount="0" stopTime="0.00" timeLoss="28.97" rerouteNo="0" devices="tripinfo_LV.4 routing_LV.4 ssm_LV.4" vType="vehLVOS504" speedFactor="1.00" vaporized=""/>
    <tripinfo id="CAVToC.24" depart="78.40" departLane="entry_1" departPos="2.38" departSpeed="32.98" departDelay="4.80" arrival="242.80" arrivalLane="e0_1" arrivalPos="4800.00" arrivalSpeed="36.54" duration="164.40" routeLength="4997.62" waitingTime="0.00" waitingCount="0" stopTime="0.00" timeLoss="27.76" rerouteNo="0" devices="tripinfo_CAVToC.24 routing_CAVToC.24 ssm_CAVToC.24 toc_CAVToC.24 driverstateCAVToC.24" vType="vehLVOS217" speedFactor="1.01" vaporized=""/>
    <tripinfo id="CAVToC.26" depart="81.00" departLane="entry_1" departPos="14.57" departSpeed="32.99" departDelay="4.90" arrival="244.70" arrivalLane="e0_1" arrivalPos="4800.00" arrivalSpeed="33.28" duration="163.70" routeLength="4985.43" waitingTime="0.00" waitingCount="0" stopTime="0.00" timeLoss="13.91" rerouteNo="0" devices="tripinfo_CAVToC.26 routing_CAVToC.26 ssm_CAVToC.26 toc_CAVToC.26 driverstateCAVToC.26" vType="vehLVOS636" speedFactor="0.92" vaporized=""/>
    <tripinfo id="CAVToC.13" depart="40.40" departLane="entry_0" departPos="4.13" departSpeed="24.43" departDelay="4.00" arrival="245.40" arrivalLane="e0_0" arrivalPos="4800.00" arrivalSpeed="24.32" duration="205.00" routeLength="4995.87" waitingTime="0.00" waitingCount="0" stopTime="0.00" timeLoss="0.46" rerouteNo="0" devices="tripinfo_CAVToC.13 routing_CAVToC.13 ssm_CAVToC.13 toc_CAVToC.13 driverstateCAVToC.13" vType="vehLVOS253" speedFactor="0.68" vaporized=""/>
    <tripinfo id="CAVToC.28" depart="83.50" departLane="entry_1" departPos="25.19" departSpeed="33.16" departDelay="6.60" arrival="246.00" arrivalLane="e0_1" arrivalPos="4800.00" arrivalSpeed="34.99" duration="162.50" routeLength="4974.81" waitingTime="0.00" waitingCount="0" stopTime="0.00" timeLoss="20.29" rerouteNo="0" devices="tripinfo_CAVToC.28 routing_CAVToC.28 ssm_CAVToC.28 toc_CAVToC.28 driverstateCAVToC.28" vType="vehLVOS72" speedFactor="0.97" vaporized=""/>
    <tripinfo id="CVToC.14" depart="43.80" departLane="entry_0" departPos="9.26" departSpeed="25.69" departDelay="4.90" arrival="246.90" arrivalLane="e0_0" arrivalPos="4800.00" arrivalSpeed="27.73" duration="203.10" routeLength="4990.74" waitingTime="0.00" waitingCount="0" stopTime="0.00" timeLoss="64.62" rerouteNo="0" devices="tripinfo_CVToC.14 routing_CVToC.14 ssm_CVToC.14 toc_CVToC.14 driverstateCVToC.14" vType="vehLVOS706" speedFactor="1.00" vaporized=""/>
    <tripinfo id="LV.6" depart="86.10" departLane="entry_1" departPos="0.44" departSpeed="41.50" departDelay="30.40" arrival="246.90" arrivalLane="e0_1" arrivalPos="4800.00" arrivalSpeed="36.37" duration="160.80" routeLength="4999.56" waitingTime="0.00" waitingCount="0" stopTime="0.00" timeLoss="40.30" rerouteNo="0" devices="tripinfo_LV.6 routing_LV.6 ssm_LV.6" vType="vehLVOS507" speedFactor="1.15" vaporized=""/>
    <tripinfo id="CVToC.17" depart="49.80" departLane="entry_0" departPos="0.31" departSpeed="27.70" departDelay="7.90" arrival="249.60" arrivalLane="e0_0" arrivalPos="4800.00" arrivalSpeed="32.32" duration="199.80" routeLength="4999.69" waitingTime="0.00" waitingCount="0" stopTime="0.00" timeLoss="69.44" rerouteNo="0" devices="tripinfo_CVToC.17 routing_CVToC.17 ssm_CVToC.17 toc_CVToC.17 driverstateCVToC.17" vType="vehLVOS265" speedFactor="1.06" vaporized=""/>
    <tripinfo id="CVToC.28" depart="86.10" departLane="entry_0" departPos="32.02" departSpeed="31.26" departDelay="9.00" arrival="250.50" arrivalLane="e0_1" arrivalPos="4800.00" arrivalSpeed="36.66" duration="164.40" routeLength="4967.98" waitingTime="0.00" waitingCount="0" stopTime="0.00" timeLoss="29.07" rerouteNo="0" devices="tripinfo_CVToC.28 routing_CVToC.28 ssm_CVToC.28 toc_CVToC.28 driverstateCVToC.28" vType="vehLVOS355" speedFactor="1.02" vaporized=""/>
    <tripinfo id="LV.7" depart="58.90" departLane="entry_1" departPos="70.12" departSpeed="26.42" departDelay="3.10" arrival="251.20" arrivalLane="e0_0" arrivalPos="4800.00" arrivalSpeed="26.41" duration="192.30" routeLength="4929.88" waitingTime="0.00" waitingCount="0" stopTime="0.00" timeLoss="5.66" rerouteNo="0" devices="tripinfo_LV.7 routing_LV.7 ssm_LV.7" vType="vehLVOS24" speedFactor="0.73" vaporized=""/>
    <tripinfo id="CAVToC.29" depart="88.70" departLane="entry_1" departPos="22.28" departSpeed="36.65" departDelay="11.30" arrival="251.40" arrivalLane="e0_1" arrivalPos="4800.00" arrivalSpeed="37.64" duration="162.70" routeLength="4977.72" waitingTime="0.00" waitingCount="0" stopTime="0.00" timeLoss="39.13" rerouteNo="0" devices="tripinfo_CAVToC.29 routing_CAVToC.29 ssm_CAVToC.29 toc_CAVToC.29 driverstateCAVToC.29" vType="vehLVOS660" speedFactor="1.12" vaporized=""/>
    <tripinfo id="CVToC.30" depart="92.10" departLane="entry_1" departPos="56.64" departSpeed="36.69" departDelay="13.40" arrival="252.70" arrivalLane="e0_1" arrivalPos="4800.00" arrivalSpeed="39.80" duration="160.60" routeLength="4943.36" waitingTime="0.00" waitingCount="0" stopTime="0.00" timeLoss="38.79" rerouteNo="0" devices="tripinfo_CVToC.30 routing_CVToC.30 ssm_CVToC.30 toc_CVToC.30 driverstateCVToC.30" vType="vehLVOS292" speedFactor="1.12" vaporized=""/>