<?xml version="1.0" encoding="UTF-8"?>

<!-- generated on Wed Jun 24 11:22:49 2020 by Eclipse SUMO Version v1_6_0+0553-a03471b
<configuration xmlns:xsi="http://www.w3.org/2001/XMLSchema-instance" xsi:noNamespaceSchemaLocation="http://sumo.dlr.de/xsd/sumoConfiguration.xsd">

    <input>
        <net-file value="scenario/UC5_1.net.xml"/>
        <route-files value="scenario/routes_trafficMix_0_trafficDemand_1_driverBehaviour_OS_seed_0.xml"/>
        <additional-files value="scenario/additionalsOutput_trafficMix_0_trafficDemand_1_driverBehaviour_OS_seed_0.xml,scenario/vTypesCAVToC_OS.add.xml,scenario/vTypesCVToC_OS.add.xml,scenario/vTypesLV_OS.add.xml,scenario/shapes.add.xml,scenario/view.add.xml"/>
    </input>

    <output>
        <tripinfo-output value="/home/noul_ar/workspace/tor-distribution/outputs/simulations/dnq_dc_seed_30.zip_20200624-101517/tripinfo_8.xml"/>
    </output>

    <time>
        <step-length value="0.1"/>
    </time>

    <processing>
        <step-method.ballistic value="true"/>
        <ignore-route-errors value="true"/>
        <lanechange.duration value="2.5"/>
    </processing>

    <report>
        <no-step-log value="true"/>
    </report>

    <toc_device>
        <device.toc.ogNewTimeHeadway value="100"/>
        <device.toc.ogNewSpaceHeadway value="5"/>
        <device.toc.ogMaxDecel value="1"/>
        <device.toc.ogChangeRate value="1"/>
    </toc_device>

    <traci_server>
        <remote-port value="39785"/>
    </traci_server>

    <random_number>
        <seed value="1032"/>
    </random_number>

    <gui_only>
        <tracker-interval value="0.1"/>
    </gui_only>

</configuration>
-->

<tripinfos xmlns:xsi="http://www.w3.org/2001/XMLSchema-instance" xsi:noNamespaceSchemaLocation="http://sumo.dlr.de/xsd/tripinfo_file.xsd">
    <tripinfo id="LV.0" depart="2.40" departLane="entry_1" departPos="126.61" departSpeed="41.64" departDelay="0.00" arrival="120.80" arrivalLane="e0_0" arrivalPos="4800.00" arrivalSpeed="41.63" duration="118.40" routeLength="4873.39" waitingTime="0.00" waitingCount="0" stopTime="0.00" timeLoss="1.36" rerouteNo="0" devices="tripinfo_LV.0 routing_LV.0 ssm_LV.0" vType="vehLVOS594" speedFactor="1.15" vaporized=""/>
    <tripinfo id="CAVToC.1" depart="1.90" departLane="entry_1" departPos="199.90" departSpeed="39.24" departDelay="0.00" arrival="124.50" arrivalLane="e0_1" arrivalPos="4800.00" arrivalSpeed="39.24" duration="122.60" routeLength="4800.10" waitingTime="0.00" waitingCount="0" stopTime="0.00" timeLoss="0.21" rerouteNo="0" devices="tripinfo_CAVToC.1 routing_CAVToC.1 ssm_CAVToC.1 toc_CAVToC.1 driverstateCAVToC.1" vType="vehLVOS570" speedFactor="1.09" vaporized=""/>
    <tripinfo id="CVToC.1" depart="4.00" departLane="entry_1" departPos="111.63" departSpeed="36.44" departDelay="0.00" arrival="131.00" arrivalLane="e0_1" arrivalPos="4800.00" arrivalSpeed="38.67" duration="127.00" routeLength="4888.37" waitingTime="0.00" waitingCount="0" stopTime="0.00" timeLoss="0.56" rerouteNo="0" devices="tripinfo_CVToC.1 routing_CVToC.1 ssm_CVToC.1 toc_CVToC.1 driverstateCVToC.1" vType="vehLVOS974" speedFactor="1.07" vaporized=""/>
    <tripinfo id="CAVToC.0" depart="0.10" departLane="entry_0" departPos="199.90" departSpeed="36.04" departDelay="0.00" arrival="133.40" arrivalLane="e0_0" arrivalPos="4800.00" arrivalSpeed="36.03" duration="133.30" routeLength="4800.10" waitingTime="0.00" waitingCount="0" stopTime="0.00" timeLoss="0.02" rerouteNo="0" devices="tripinfo_CAVToC.0 routing_CAVToC.0 ssm_CAVToC.0 toc_CAVToC.0 driverstateCAVToC.0" vType="vehLVOS610" speedFactor="1.00" vaporized=""/>
    <tripinfo id="CVToC.0" depart="1.80" departLane="entry_0" departPos="182.87" departSpeed="36.26" departDelay="0.00" arrival="134.50" arrivalLane="e0_1" arrivalPos="4800.00" arrivalSpeed="37.15" duration="132.70" routeLength="4817.13" waitingTime="0.00" waitingCount="0" stopTime="0.00" timeLoss="3.19" rerouteNo="0" devices="tripinfo_CVToC.0 routing_CVToC.0 ssm_CVToC.0 toc_CVToC.0 driverstateCVToC.0" vType="vehLVOS323" speedFactor="1.03" vaporized=""/>
    <tripinfo id="LV.1" depart="2.90" departLane="entry_0" departPos="197.62" departSpeed="35.57" departDelay="0.00" arrival="138.10" arrivalLane="e0_0" arrivalPos="4800.00" arrivalSpeed="35.51" duration="135.20" routeLength="4802.38" waitingTime="0.00" waitingCount="0" stopTime="0.00" timeLoss="0.18" rerouteNo="0" devices="tripinfo_LV.1 routing_LV.1 ssm_LV.1" vType="vehLVOS125" speedFactor="0.99" vaporized=""/>
    <tripinfo id="CAVToC.4" depart="6.80" departLane="entry_1" departPos="136.76" departSpeed="37.32" departDelay="0.00" arrival="138.40" arrivalLane="e0_1" arrivalPos="4800.00" arrivalSpeed="37.32" duration="131.60" routeLength="4863.24" waitingTime="0.00" waitingCount="0" stopTime="0.00" timeLoss="1.28" rerouteNo="0" devices="tripinfo_CAVToC.4 routing_CAVToC.4 ssm_CAVToC.4 toc_CAVToC.4 driverstateCAVToC.4" vType="vehLVOS598" speedFactor="1.03" vaporized=""/>
    <tripinfo id="CAVToC.2" depart="3.20" departLane="entry_0" departPos="121.08" departSpeed="36.18" departDelay="0.00" arrival="139.60" arrivalLane="e0_0" arrivalPos="4800.00" arrivalSpeed="35.49" duration="136.40" routeLength="4878.92" waitingTime="0.00" waitingCount="0" stopTime="0.00" timeLoss="19.88" rerouteNo="0" devices="tripinfo_CAVToC.2 routing_CAVToC.2 ssm_CAVToC.2 toc_CAVToC.2 driverstateCAVToC.2" vType="vehLVOS439" speedFactor="1.16" vaporized=""/>
    <tripinfo id="LV.2" depart="8.30" departLane="entry_1" departPos="70.18" departSpeed="39.63" departDelay="0.10" arrival="140.10" arrivalLane="e0_1" arrivalPos="4800.00" arrivalSpeed="39.61" duration="131.80" routeLength="4929.82" waitingTime="0.00" waitingCount="0" stopTime="0.00" timeLoss="7.35" rerouteNo="0" devices="tripinfo_LV.2 routing_LV.2 ssm_LV.2" vType="vehLVOS984" speedFactor="1.10" vaporized=""/>
    <tripinfo id="CVToC.3" depart="10.00" departLane="entry_1" departPos="60.76" departSpeed="35.46" departDelay="0.00" arrival="149.70" arrivalLane="e0_1" arrivalPos="4800.00" arrivalSpeed="35.41" duration="139.70" routeLength="4939.24" waitingTime="0.00" waitingCount="0" stopTime="0.00" timeLoss="0.32" rerouteNo="0" devices="tripinfo_CVToC.3 routing_CVToC.3 ssm_CVToC.3 toc_CVToC.3 driverstateCVToC.3" vType="vehLVOS15" speedFactor="0.98" vaporized=""/>
    <tripinfo id="CAVToC.3" depart="4.20" departLane="entry_0" departPos="85.67" departSpeed="33.73" departDelay="0.00" arrival="152.00" arrivalLane="e0_0" arrivalPos="4800.00" arrivalSpeed="33.65" duration="147.80" routeLength="4914.33" waitingTime="0.00" waitingCount="0" stopTime="0.00" timeLoss="2.02" rerouteNo="0" devices="tripinfo_CAVToC.3 routing_CAVToC.3 ssm_CAVToC.3 toc_CAVToC.3 driverstateCAVToC.3" vType="vehLVOS768" speedFactor="0.93" vaporized=""/>
    <tripinfo id="LV.3" depart="11.10" departLane="entry_0" departPos="12.34" departSpeed="35.84" departDelay="0.70" arrival="153.70" arrivalLane="e0_1" arrivalPos="4800.00" arrivalSpeed="35.77" duration="142.60" routeLength="4987.66" waitingTime="0.00" waitingCount="0" stopTime="0.00" timeLoss="3.45" rerouteNo="0" devices="tripinfo_LV.3 routing_LV.3 ssm_LV.3" vType="vehLVOS369" speedFactor="0.99" vaporized=""/>
    <tripinfo id="CVToC.4" depart="13.20" departLane="entry_1" departPos="11.58" departSpeed="32.87" departDelay="1.30" arrival="154.90" arrivalLane="e0_1" arrivalPos="4800.00" arrivalSpeed="37.51" duration="141.70" routeLength="4988.42" waitingTime="0.00" waitingCount="0" stopTime="0.00" timeLoss="11.66" rerouteNo="0" devices="tripinfo_CVToC.4 routing_CVToC.4 ssm_CVToC.4 toc_CVToC.4 driverstateCVToC.4" vType="vehLVOS690" speedFactor="1.06" vaporized=""/>
    <tripinfo id="CAVToC.7" depart="14.70" departLane="entry_0" departPos="40.08" departSpeed="31.94" departDelay="0.10" arrival="155.80" arrivalLane="e0_1" arrivalPos="4800.00" arrivalSpeed="38.44" duration="141.10" routeLength="4959.92" waitingTime="0.00" waitingCount="0" stopTime="0.00" timeLoss="20.13" rerouteNo="0" devices="tripinfo_CAVToC.7 routing_CAVToC.7 ssm_CAVToC.7 toc_CAVToC.7 driverstateCAVToC.7" vType="vehLVOS851" speedFactor="1.14" vaporized=""/>
    <tripinfo id="CAVToC.9" depart="17.70" departLane="entry_1" departPos="2.81" departSpeed="30.69" departDelay="1.30" arrival="156.90" arrivalLane="e0_1" arrivalPos="4800.00" arrivalSpeed="39.05" duration="139.20" routeLength="4997.19" waitingTime="0.00" waitingCount="0" stopTime="0.00" timeLoss="13.61" rerouteNo="0" devices="tripinfo_CAVToC.9 routing_CAVToC.9 ssm_CAVToC.9 toc_CAVToC.9 driverstateCAVToC.9" vType="vehLVOS668" speedFactor="1.10" vaporized=""/>
    <tripinfo id="CAVToC.5" depart="6.90" departLane="entry_0" departPos="107.96" departSpeed="32.20" departDelay="0.00" arrival="159.60" arrivalLane="e0_0" arrivalPos="4800.00" arrivalSpeed="32.16" duration="152.70" routeLength="4892.04" waitingTime="0.00" waitingCount="0" stopTime="0.00" timeLoss="0.76" rerouteNo="0" devices="tripinfo_CAVToC.5 routing_CAVToC.5 ssm_CAVToC.5 toc_CAVToC.5 driverstateCAVToC.5" vType="vehLVOS174" speedFactor="0.89" vaporized=""/>
    <tripinfo id="CVToC.2" depart="7.90" departLane="entry_0" departPos="59.83" departSpeed="32.79" departDelay="0.00" arrival="160.70" arrivalLane="e0_0" arrivalPos="4800.00" arrivalSpeed="33.33" duration="152.80" routeLength="4940.17" waitingTime="0.00" waitingCount="0" stopTime="0.00" timeLoss="18.94" rerouteNo="0" devices="tripinfo_CVToC.2 routing_CVToC.2 ssm_CVToC.2 toc_CVToC.2 driverstateCVToC.2" vType="vehLVOS536" speedFactor="1.02" vaporized=""/>
    <tripinfo id="CVToC.9" depart="20.50" departLane="entry_1" departPos="5.98" departSpeed="31.33" departDelay="1.80" arrival="161.50" arrivalLane="e0_1" arrivalPos="4800.00" arrivalSpeed="37.39" duration="141.00" routeLength="4994.02" waitingTime="0.00" waitingCount="0" stopTime="0.00" timeLoss="7.37" rerouteNo="0" devices="tripinfo_CVToC.9 routing_CVToC.9 ssm_CVToC.9 toc_CVToC.9 driverstateCVToC.9" vType="vehLVOS642" speedFactor="1.04" vaporized=""/>
    <tripinfo id="CVToC.10" depart="23.30" departLane="entry_1" departPos="3.69" departSpeed="32.11" departDelay="3.70" arrival="163.10" arrivalLane="e0_1" arrivalPos="4800.00" arrivalSpeed="39.69" duration="139.80" routeLength="4996.31" waitingTime="0.00" waitingCount="0" stopTime="0.00" timeLoss="13.94" rerouteNo="0" devices="tripinfo_CVToC.10 routing_CVToC.10 ssm_CVToC.10 toc_CVToC.10 driverstateCVToC.10" vType="vehLVOS822" speedFactor="1.10" vaporized=""/>
    <tripinfo id="CAVToC.6" depart="10.30" departLane="entry_1" departPos="1.96" departSpeed="32.13" departDelay="0.10" arrival="166.00" arrivalLane="e0_0" arrivalPos="4800.00" arrivalSpeed="32.09" duration="155.70" routeLength="4998.04" waitingTime="0.00" waitingCount="0" stopTime="0.00" timeLoss="0.15" rerouteNo="0" devices="tripinfo_CAVToC.6 routing_CAVToC.6 ssm_CAVToC.6 toc_CAVToC.6 driverstateCAVToC.6" vType="vehLVOS2" speedFactor="0.89" vaporized=""/>
    <tripinfo id="CVToC.14" depart="28.10" departLane="entry_1" departPos="2.55" departSpeed="32.68" departDelay="3.10" arrival="171.80" arrivalLane="e0_1" arrivalPos="4800.00" arrivalSpeed="38.36" duration="143.70" routeLength="4997.45" waitingTime="0.00" waitingCount="0" stopTime="0.00" timeLoss="13.42" rerouteNo="0" devices="tripinfo_CVToC.14 routing_CVToC.14 ssm_CVToC.14 toc_CVToC.14 driverstateCVToC.14" vType="vehLVOS8" speedFactor="1.06" vaporized=""/>
    <tripinfo id="CVToC.7" depart="19.20" departLane="entry_0" departPos="0.33" departSpeed="28.15" departDelay="2.60" arrival="172.90" arrivalLane="e0_0" arrivalPos="4800.00" arrivalSpeed="38.93" duration="153.70" routeLength="4999.67" waitingTime="0.00" waitingCount="0" stopTime="0.00" timeLoss="25.28" rerouteNo="0" devices="tripinfo_CVToC.7 routing_CVToC.7 ssm_CVToC.7 toc_CVToC.7 driverstateCVToC.7" vType="vehLVOS83" speedFactor="1.08" vaporized=""/>
    <tripinfo id="CVToC.13" depart="26.00" departLane="entry_1" departPos="17.39" departSpeed="32.14" departDelay="2.30" arrival="176.00" arrivalLane="e0_0" arrivalPos="4800.00" arrivalSpeed="33.74" duration="150.00" routeLength="4982.61" waitingTime="0.00" waitingCount="0" stopTime="0.00" timeLoss="2.51" rerouteNo="0" devices="tripinfo_CVToC.13 routing_CVToC.13 ssm_CVToC.13 toc_CVToC.13 driverstateCVToC.13" vType="vehLVOS234" speedFactor="0.94" vaporized=""/>
    <tripinfo id="CAVToC.8" depart="16.20" departLane="entry_0" departPos="1.93" departSpeed="32.05" departDelay="0.70" arrival="177.30" arrivalLane="e0_1" arrivalPos="4800.00" arrivalSpeed="38.19" duration="161.10" routeLength="4998.07" waitingTime="0.00" waitingCount="0" stopTime="0.00" timeLoss="30.36" rerouteNo="0" devices="tripinfo_CAVToC.8 routing_CAVToC.8 ssm_CAVToC.8 toc_CAVToC.8 driverstateCAVToC.8" vType="vehLVOS757" speedFactor="1.06" vaporized=""/>
    <tripinfo id="CVToC.6" depart="15.50" departLane="entry_1" departPos="25.37" departSpeed="29.55" departDelay="0.20" arrival="184.30" arrivalLane="e0_0" arrivalPos="4800.00" arrivalSpeed="29.54" duration="168.80" routeLength="4974.63" waitingTime="0.00" waitingCount="0" stopTime="0.00" timeLoss="0.41" rerouteNo="0" devices="tripinfo_CVToC.6 routing_CVToC.6 ssm_CVToC.6 toc_CVToC.6 driverstateCVToC.6" vType="vehLVOS198" speedFactor="0.82" vaporized=""/>
    <tripinfo id="CAVToC.10" depart="22.00" departLane="entry_0" departPos="6.34" departSpeed="28.54" departDelay="2.80" arrival="184.70" arrivalLane="e0_1" arrivalPos="4800.00" arrivalSpeed="32.66" duration="162.70" routeLength="4993.66" waitingTime="0.00" waitingCount="0" stopTime="0.00" timeLoss="9.72" rerouteNo="0" devices="tripinfo_CAVToC.10 routing_CAVToC.10 ssm_CAVToC.10 toc_CAVToC.10 driverstateCAVToC.10" vType="vehLVOS546" speedFactor="0.90" vaporized=""/>
    <tripinfo id="CAVToC.12" depart="30.20" departLane="entry_1" departPos="7.28" departSpeed="31.24" departDelay="3.70" arrival="190.20" arrivalLane="e0_1" arrivalPos="4800.00" arrivalSpeed="31.22" duration="160.00" routeLength="4992.72" waitingTime="0.00" waitingCount="0" stopTime="0.00" timeLoss="0.11" rerouteNo="0" devices="tripinfo_CAVToC.12 routing_CAVToC.12 ssm_CAVToC.12 toc_CAVToC.12 driverstateCAVToC.12" vType="vehLVOS421" speedFactor="0.87" vaporized=""/>
    <tripinfo id="CVToC.5" depart="25.10" departLane="entry_0" departPos="1.14" departSpeed="29.45" departDelay="10.50" arrival="192.20" arrivalLane="e0_0" arrivalPos="4800.00" arrivalSpeed="35.99" duration="167.10" routeLength="4998.86" waitingTime="0.00" waitingCount="0" stopTime="0.00" timeLoss="48.25" rerouteNo="0" devices="tripinfo_CVToC.5 routing_CVToC.5 ssm_CVToC.5 toc_CVToC.5 driverstateCVToC.5" vType="vehLVOS265" speedFactor="1.17" vaporized=""/>
    <tripinfo id="CVToC.15" depart="32.40" departLane="entry_1" departPos="0.38" departSpeed="31.82" departDelay="6.00" arrival="192.70" arrivalLane="e0_1" arrivalPos="4800.00" arrivalSpeed="34.48" duration="160.30" routeLength="4999.62" waitingTime="0.00" waitingCount="0" stopTime="0.00" timeLoss="21.52" rerouteNo="0" devices="tripinfo_CVToC.15 routing_CVToC.15 ssm_CVToC.15 toc_CVToC.15 driverstateCVToC.15" vType="vehLVOS895" speedFactor="1.00" vaporized=""/>
    <tripinfo id="CVToC.11" depart="28.00" departLane="entry_0" departPos="4.17" departSpeed="29.15" departDelay="7.10" arrival="193.10" arrivalLane="e0_0" arrivalPos="4800.00" arrivalSpeed="35.23" duration="165.10" routeLength="4995.83" waitingTime="0.00" waitingCount="0" stopTime="0.00" timeLoss="26.99" rerouteNo="0" devices="tripinfo_CVToC.11 routing_CVToC.11 ssm_CVToC.11 toc_CVToC.11 driverstateCVToC.11" vType="vehLVOS108" speedFactor="1.00" vaporized=""/>
    <tripinfo id="CVToC.12" depart="33.20" departLane="entry_0" departPos="4.16" departSpeed="30.62" departDelay="12.20" arrival="193.60" arrivalLane="e0_1" arrivalPos="4800.00" arrivalSpeed="35.50" duration="160.40" routeLength="4995.84" waitingTime="0.00" waitingCount="0" stopTime="0.00" timeLoss="28.44" rerouteNo="0" devices="tripinfo_CVToC.12 routing_CVToC.12 ssm_CVToC.12 toc_CVToC.12 driverstateCVToC.12" vType="vehLVOS848" speedFactor="1.05" vaporized=""/>
    <tripinfo id="CAVToC.14" depart="36.90" departLane="entry_1" departPos="4.54" departSpeed="29.20" departDelay="3.70" arrival="195.30" arrivalLane="e0_1" arrivalPos="4800.00" arrivalSpeed="36.73" duration="158.40" routeLength="4995.46" waitingTime="0.00" waitingCount="0" stopTime="0.00" timeLoss="22.56" rerouteNo="0" devices="tripinfo_CAVToC.14 routing_CAVToC.14 ssm_CAVToC.14 toc_CAVToC.14 driverstateCAVToC.14" vType="vehLVOS120" speedFactor="1.02" vaporized=""/>
    <tripinfo id="CAVToC.11" depart="30.30" departLane="entry_0" departPos="3.11" departSpeed="29.68" departDelay="4.90" arrival="195.40" arrivalLane="e0_0" arrivalPos="4800.00" arrivalSpeed="31.68" duration="165.10" routeLength="4996.89" waitingTime="0.00" waitingCount="0" stopTime="0.00" timeLoss="7.38" rerouteNo="0" devices="tripinfo_CAVToC.11 routing_CAVToC.11 ssm_CAVToC.11 toc_CAVToC.11 driverstateCAVToC.11" vType="vehLVOS298" speedFactor="0.88" vaporized=""/>
    <tripinfo id="CVToC.19" depart="40.00" departLane="entry_1" departPos="22.37" departSpeed="29.62" departDelay="4.20" arrival="196.30" arrivalLane="e0_1" arrivalPos="4800.00" arrivalSpeed="33.97" duration="156.30" routeLength="4977.63" waitingTime="0.00" waitingCount="0" stopTime="0.00" timeLoss="9.90" rerouteNo="0" devices="tripinfo_CVToC.19 routing_CVToC.19 ssm_CVToC.19 toc_CVToC.19 driverstateCVToC.19" vType="vehLVOS507" speedFactor="0.94" vaporized=""/>
    <tripinfo id="CVToC.8" depart="42.60" departLane="entry_1" departPos="2.05" departSpeed="31.15" departDelay="25.60" arrival="197.50" arrivalLane="e0_1" arrivalPos="4800.00" arrivalSpeed="35.12" duration="154.90" routeLength="4997.95" waitingTime="0.00" waitingCount="0" stopTime="0.00" timeLoss="45.70" rerouteNo="0" devices="tripinfo_CVToC.8 routing_CVToC.8 ssm_CVToC.8 toc_CVToC.8 driverstateCVToC.8" vType="vehLVOS15" speedFactor="1.27" vaporized=""/>
    <tripinfo id="CVToC.21" depart="47.60" departLane="entry_1" departPos="9.23" departSpeed="31.52" departDelay="8.50" arrival="199.40" arrivalLane="e0_1" arrivalPos="4800.00" arrivalSpeed="35.66" duration="151.80" routeLength="4990.77" waitingTime="0.00" waitingCount="0" stopTime="0.00" timeLoss="11.78" rerouteNo="0" devices="tripinfo_CVToC.21 routing_CVToC.21 ssm_CVToC.21 toc_CVToC.21 driverstateCVToC.21" vType="vehLVOS680" speedFactor="0.99" vaporized=""/>
    <tripinfo id="CAVToC.16" depart="45.20" departLane="entry_1" departPos="10.86" departSpeed="31.20" departDelay="1.50" arrival="199.70" arrivalLane="e0_0" arrivalPos="4800.00" arrivalSpeed="33.13" duration="154.50" routeLength="4989.14" waitingTime="0.00" waitingCount="0" stopTime="0.00" timeLoss="4.47" rerouteNo="0" devices="tripinfo_CAVToC.16 routing_CAVToC.16 ssm_CAVToC.16 toc_CAVToC.16 driverstateCAVToC.16" vType="vehLVOS684" speedFactor="0.92" vaporized=""/>
    <tripinfo id="CVToC.23" depart="50.20" departLane="entry_1" departPos="3.92" departSpeed="32.24" departDelay="6.00" arrival="201.60" arrivalLane="e0_1" arrivalPos="4800.00" arrivalSpeed="37.95" duration="151.40" routeLength="4996.08" waitingTime="0.00" waitingCount="0" stopTime="0.00" timeLoss="27.49" rerouteNo="0" devices="tripinfo_CVToC.23 routing_CVToC.23 ssm_CVToC.23 toc_CVToC.23 driverstateCVToC.23" vType="vehLVOS975" speedFactor="1.12" vaporized=""/>
    <tripinfo id="CVToC.22" depart="49.50" departLane="entry_0" departPos="1.26" departSpeed="31.22" departDelay="7.10" arrival="203.10" arrivalLane="e0_0" arrivalPos="4800.00" arrivalSpeed="39.13" duration="153.60" routeLength="4998.74" waitingTime="0.00" waitingCount="0" stopTime="0.00" timeLoss="25.86" rerouteNo="0" devices="tripinfo_CVToC.22 routing_CVToC.22 ssm_CVToC.22 toc_CVToC.22 driverstateCVToC.22" vType="vehLVOS172" speedFactor="1.08" vaporized=""/>
    <tripinfo id="CVToC.20" depart="41.40" departLane="entry_0" departPos="12.77" departSpeed="26.70" departDelay="3.80" arrival="204.90" arrivalLane="e0_1" arrivalPos="4800.00" arrivalSpeed="35.75" duration="163.50" routeLength="4987.23" waitingTime="0.00" waitingCount="0" stopTime="0.00" timeLoss="24.31" rerouteNo="0" devices="tripinfo_CVToC.20 routing_CVToC.20 ssm_CVToC.20 toc_CVToC.20 driverstateCVToC.20" vType="vehLVOS875" speedFactor="0.99" vaporized=""/>
    <tripinfo id="CAVToC.15" depart="44.30" departLane="entry_0" departPos="11.73" departSpeed="28.79" departDelay="6.50" arrival="206.80" arrivalLane="e0_1" arrivalPos="4800.00" arrivalSpeed="37.92" duration="162.50" routeLength="4988.27" waitingTime="0.00" waitingCount="0" stopTime="0.00" timeLoss="31.08" rerouteNo="0" devices="tripinfo_CAVToC.15 routing_CAVToC.15 ssm_CAVToC.15 toc_CAVToC.15 driverstateCAVToC.15" vType="vehLVOS933" speedFactor="1.05" vaporized=""/>
    <tripinfo id="LV.4" depart="33.80" departLane="entry_1" departPos="0.49" departSpeed="28.22" departDelay="5.40" arrival="211.30" arrivalLane="e0_0" arrivalPos="4800.00" arrivalSpeed="28.19" duration="177.50" routeLength="4999.51" waitingTime="0.00" waitingCount="0" stopTime="0.00" timeLoss="0.22" rerouteNo="0" devices="tripinfo_LV.4 routing_LV.4 ssm_LV.4" vType="vehLVOS592" speedFactor="0.78" vaporized=""/>
    <tripinfo id="CVToC.24" depart="58.00" departLane="entry_1" departPos="5.28" departSpeed="32.38" departDelay="12.50" arrival="211.30" arrivalLane="e0_1" arrivalPos="4800.00" arrivalSpeed="41.59" duration="153.30" routeLength="4994.72" waitingTime="0.00" waitingCount="0" stopTime="0.00" timeLoss="33.36" rerouteNo="0" devices="tripinfo_CVToC.24 routing_CVToC.24 ssm_CVToC.24 toc_CVToC.24 driverstateCVToC.24" vType="vehLVOS243" speedFactor="1.15" vaporized=""/>
    <tripinfo id="CAVToC.13" depart="35.40" departLane="entry_0" departPos="0.33" departSpeed="30.80" departDelay="6.20" arrival="212.40" arrivalLane="e0_0" arrivalPos="4800.00" arrivalSpeed="29.76" duration="177.00" routeLength="4999.67" waitingTime="0.00" waitingCount="0" stopTime="0.00" timeLoss="27.15" rerouteNo="0" devices="tripinfo_CAVToC.13 routing_CAVToC.13 ssm_CAVToC.13 toc_CAVToC.13 driverstateCAVToC.13" vType="vehLVOS245" speedFactor="0.92" vaporized=""/>
    <tripinfo id="CVToC.27" depart="60.90" departLane="entry_1" departPos="15.15" departSpeed="32.62" departDelay="6.80" arrival="212.50" arrivalLane="e0_1" arrivalPos="4800.00" arrivalSpeed="40.10" duration="151.60" routeLength="4984.85" waitingTime="0.00" waitingCount="0" stopTime="0.00" timeLoss="27.19" rerouteNo="0" devices="tripinfo_CVToC.27 routing_CVToC.27 ssm_CVToC.27 toc_CVToC.27 driverstateCVToC.27" vType="vehLVOS663" speedFactor="1.11" vaporized=""/>
    <tripinfo id="CVToC.26" depart="58.70" departLane="entry_0" departPos="6.09" departSpeed="28.22" departDelay="11.00" arrival="213.40" arrivalLane="e0_1" arrivalPos="4800.00" arrivalSpeed="41.59" duration="154.70" routeLength="4993.91" waitingTime="0.00" waitingCount="0" stopTime="0.00" timeLoss="38.56" rerouteNo="0" devices="tripinfo_CVToC.26 routing_CVToC.26 ssm_CVToC.26 toc_CVToC.26 driverstateCVToC.26" vType="vehLVOS478" speedFactor="1.19" vaporized=""/>
    <tripinfo id="CVToC.17" depart="38.20" departLane="entry_0" departPos="7.05" departSpeed="26.19" departDelay="7.10" arrival="214.30" arrivalLane="e0_0" arrivalPos="4800.00" arrivalSpeed="31.63" duration="176.10" routeLength="4992.95" waitingTime="0.00" waitingCount="0" stopTime="0.00" timeLoss="18.89" rerouteNo="0" devices="tripinfo_CVToC.17 routing_CVToC.17 ssm_CVToC.17 toc_CVToC.17 driverstateCVToC.17" vType="vehLVOS879" speedFactor="0.88" vaporized=""/>
    <tripinfo id="CVToC.18" depart="46.60" departLane="entry_0" departPos="0.23" departSpeed="30.05" departDelay="12.80" arrival="215.20" arrivalLane="e0_0" arrivalPos="4800.00" arrivalSpeed="32.15" duration="168.60" routeLength="4999.77" waitingTime="0.00" waitingCount="0" stopTime="0.00" timeLoss="33.95" rerouteNo="0" devices="tripinfo_CVToC.18 routing_CVToC.18 ssm_CVToC.18 toc_CVToC.18 driverstateCVToC.18" vType="vehLVOS391" speedFactor="1.03" vaporized=""/>
    <tripinfo id="LV.7" depart="55.40" departLane="entry_1" departPos="16.59" departSpeed="32.28" departDelay="4.40" arrival="218.30" arrivalLane="e0_0" arrivalPos="4800.00" arrivalSpeed="32.18" duration="162.90" routeLength="4983.41" waitingTime="0.00" waitingCount="0" stopTime="0.00" timeLoss="8.50" rerouteNo="0" devices="tripinfo_LV.7 routing_LV.7 ssm_LV.7" vType="vehLVOS782" speedFactor="0.89" vaporized=""/>
    <tripinfo id="CAVToC.20" depart="63.10" departLane="entry_1" departPos="6.29" departSpeed="32.71" departDelay="6.20" arrival="219.90" arrivalLane="e0_1" arrivalPos="4800.00" arrivalSpeed="36.03" duration="156.80" routeLength="4993.71" waitingTime="0.00" waitingCount="0" stopTime="0.00" timeLoss="18.19" rerouteNo="0" devices="tripinfo_CAVToC.20 routing_CAVToC.20 ssm_CAVToC.20 toc_CAVToC.20 driverstateCAVToC.20" vType="vehLVOS163" speedFactor="1.00" vaporized=""/>
    <tripinfo id="CAVToC.22" depart="65.90" departLane="entry_1" departPos="20.31" departSpeed="32.59" departDelay="5.60" arrival="223.70" arrivalLane="e0_1" arrivalPos="4800.00" arrivalSpeed="35.63" duration="157.80" routeLength="4979.69" waitingTime="0.00" waitingCount="0" stopTime="0.00" timeLoss="18.70" rerouteNo="0" devices="tripinfo_CAVToC.22 routing_CAVToC.22 ssm_CAVToC.22 toc_CAVToC.22 driverstateCAVToC.22" vType="vehLVOS816" speedFactor="0.99" vaporized=""/>
    <tripinfo id="LV.9" depart="70.00" departLane="entry_1" departPos="5.13" departSpeed="38.35" departDelay="12.20" arrival="225.20" arrivalLane="e0_1" arrivalPos="4800.00" arrivalSpeed="37.46" duration="155.20" routeLength="4994.87" waitingTime="0.00" waitingCount="0" stopTime="0.00" timeLoss="24.95" rerouteNo="0" devices="tripinfo_LV.9 routing_LV.9 ssm_LV.9" vType="vehLVOS573" speedFactor="1.06" vaporized=""/>
    <tripinfo id="LV.8" depart="71.80" departLane="entry_1" departPos="0.86" departSpeed="40.22" departDelay="17.70" arrival="226.30" arrivalLane="e0_1" arrivalPos="4800.00" arrivalSpeed="38.46" duration="154.50" routeLength="4999.14" waitingTime="0.00" waitingCount="0" stopTime="0.00" timeLoss="30.19" rerouteNo="0" devices="tripinfo_LV.8 routing_LV.8 ssm_LV.8" vType="vehLVOS981" speedFactor="1.11" vaporized=""/>
    <tripinfo id="LV.11" depart="73.50" departLane="entry_1" departPos="21.31" departSpeed="40.49" departDelay="12.20" arrival="227.10" arrivalLane="e0_1" arrivalPos="4800.00" arrivalSpeed="38.93" duration="153.60" routeLength="4978.69" waitingTime="0.00" waitingCount="0" stopTime="0.00" timeLoss="30.59" rerouteNo="0" devices="tripinfo_LV.11 routing_LV.11 ssm_LV.11" vType="vehLVOS514" speedFactor="1.12" vaporized=""/>
    <tripinfo id="CAVToC.17" depart="52.20" departLane="entry_1" departPos="4.78" departSpeed="28.57" departDelay="0.90" arrival="227.60" arrivalLane="e0_0" arrivalPos="4800.00" arrivalSpeed="28.46" duration="175.40" routeLength="4995.22" waitingTime="0.00" waitingCount="0" stopTime="0.00" timeLoss="0.53" rerouteNo="0" devices="tripinfo_CAVToC.17 routing_CAVToC.17 ssm_CAVToC.17 toc_CAVToC.17 driverstateCAVToC.17" vType="vehLVOS274" speedFactor="0.79" vaporized=""/>
    <tripinfo id="LV.10" depart="72.80" departLane="entry_0" departPos="0.66" departSpeed="41.94" departDelay="14.10" arrival="228.40" arrivalLane="e0_1" arrivalPos="4800.00" arrivalSpeed="41.17" duration="155.60" routeLength="4999.34" waitingTime="0.00" waitingCount="0" stopTime="0.00" timeLoss="36.37" rerouteNo="0" devices="tripinfo_LV.10 routing_LV.10 ssm_LV.10" vType="vehLVOS445" speedFactor="1.16" vaporized=""/>
    <tripinfo id="CVToC.16" depart="52.80" departLane="entry_0" departPos="7.86" departSpeed="31.30" departDelay="24.40" arrival="229.10" arrivalLane="e0_0" arrivalPos="4800.00" arrivalSpeed="30.98" duration="176.30" routeLength="4992.14" waitingTime="0.00" waitingCount="0" stopTime="0.00" timeLoss="56.33" rerouteNo="0" devices="tripinfo_CVToC.16 routing_CVToC.16 ssm_CVToC.16 toc_CVToC.16 driverstateCVToC.16" vType="vehLVOS203" speedFactor="1.15" vaporized=""/>
    <tripinfo id="CVToC.25" depart="55.20" departLane="entry_0" departPos="5.02" departSpeed="27.15" departDelay="8.70" arrival="232.40" arrivalLane="e0_0" arrivalPos="4800.00" arrivalSpeed="33.61" duration="177.20" routeLength="4994.98" waitingTime="0.00" waitingCount="0" stopTime="0.00" timeLoss="28.61" rerouteNo="0" devices="tripinfo_CVToC.25 routing_CVToC.25 ssm_CVToC.25 toc_CVToC.25 driverstateCVToC.25" vType="vehLVOS574" speedFactor="0.93" vaporized=""/>
    <tripinfo id="CAVToC.25" depart="75.00" departLane="entry_1" departPos="13.12" departSpeed="34.09" departDelay="12.00" arrival="232.80" arrivalLane="e0_1" arrivalPos="4800.00" arrivalSpeed="34.07" duration="157.80" routeLength="4986.88" waitingTime="0.00" waitingCount="0" stopTime="0.00" timeLoss="11.49" rerouteNo="0" devices="tripinfo_CAVToC.25 routing_CAVToC.25 ssm_CAVToC.25 toc_CAVToC.25 driverstateCAVToC.25" vType="vehLVOS845" speedFactor="0.94" vaporized=""/>
    <tripinfo id="CAVToC.18" depart="61.10" departLane="entry_0" departPos="4.80" departSpeed="28.36" departDelay="4.80" arrival="235.00" arrivalLane="e0_0" arrivalPos="4800.00" arrivalSpeed="30.73" duration="173.90" routeLength="4995.20" waitingTime="0.00" waitingCount="0" stopTime="0.00" timeLoss="11.30" rerouteNo="0" devices="tripinfo_CAVToC.18 routing_CAVToC.18 ssm_CAVToC.18 toc_CAVToC.18 driverstateCAVToC.18" vType="vehLVOS59" speedFactor="0.85" vaporized=""/>
    <tripinfo id="CVToC.28" depart="77.40" departLane="entry_1" departPos="9.93" departSpeed="34.63" departDelay="15.10" arrival="235.70" arrivalLane="e0_1" arrivalPos="4800.00" arrivalSpeed="38.24" duration="158.30" routeLength="4990.07" waitingTime="0.00" waitingCount="0" stopTime="0.00" timeLoss="27.82" rerouteNo="0" devices="tripinfo_CVToC.28 routing_CVToC.28 ssm_CVToC.28 toc_CVToC.28 driverstateCVToC.28" vType="vehLVOS112" speedFactor="1.06" vaporized=""/>