<?xml version="1.0" encoding="UTF-8"?>

<!-- generated on Wed Jun 24 10:42:44 2020 by Eclipse SUMO Version v1_6_0+0553-a03471b
<configuration xmlns:xsi="http://www.w3.org/2001/XMLSchema-instance" xsi:noNamespaceSchemaLocation="http://sumo.dlr.de/xsd/sumoConfiguration.xsd">

    <input>
        <net-file value="scenario/UC5_1.net.xml"/>
        <route-files value="scenario/routes_trafficMix_0_trafficDemand_1_driverBehaviour_OS_seed_0.xml"/>
        <additional-files value="scenario/additionalsOutput_trafficMix_0_trafficDemand_1_driverBehaviour_OS_seed_0.xml,scenario/vTypesCAVToC_OS.add.xml,scenario/vTypesCVToC_OS.add.xml,scenario/vTypesLV_OS.add.xml,scenario/shapes.add.xml,scenario/view.add.xml"/>
    </input>

    <output>
        <tripinfo-output value="/home/noul_ar/workspace/tor-distribution/outputs/simulations/dnq_dc_seed_30.zip_20200624-101517/tripinfo_4.xml"/>
    </output>

    <time>
        <step-length value="0.1"/>
    </time>

    <processing>
        <step-method.ballistic value="true"/>
        <ignore-route-errors value="true"/>
        <lanechange.duration value="2.5"/>
    </processing>

    <report>
        <no-step-log value="true"/>
    </report>

    <toc_device>
        <device.toc.ogNewTimeHeadway value="100"/>
        <device.toc.ogNewSpaceHeadway value="5"/>
        <device.toc.ogMaxDecel value="1"/>
        <device.toc.ogChangeRate value="1"/>
    </toc_device>

    <traci_server>
        <remote-port value="37553"/>
    </traci_server>

    <random_number>
        <seed value="1028"/>
    </random_number>

    <gui_only>
        <tracker-interval value="0.1"/>
    </gui_only>

</configuration>
-->

<tripinfos xmlns:xsi="http://www.w3.org/2001/XMLSchema-instance" xsi:noNamespaceSchemaLocation="http://sumo.dlr.de/xsd/tripinfo_file.xsd">
    <tripinfo id="CAVToC.0" depart="0.20" departLane="entry_1" departPos="199.90" departSpeed="28.35" departDelay="0.00" arrival="169.70" arrivalLane="e0_1" arrivalPos="4800.00" arrivalSpeed="28.34" duration="169.50" routeLength="4800.10" waitingTime="0.00" waitingCount="0" stopTime="0.00" timeLoss="0.14" rerouteNo="0" devices="tripinfo_CAVToC.0 routing_CAVToC.0 ssm_CAVToC.0 toc_CAVToC.0 driverstateCAVToC.0" vType="vehLVOS604" speedFactor="0.79" vaporized=""/>
    <tripinfo id="CVToC.0" depart="2.30" departLane="entry_1" departPos="182.66" departSpeed="29.18" departDelay="0.00" arrival="171.20" arrivalLane="e0_1" arrivalPos="4800.00" arrivalSpeed="31.68" duration="168.90" routeLength="4817.34" waitingTime="0.00" waitingCount="0" stopTime="0.00" timeLoss="33.74" rerouteNo="0" devices="tripinfo_CVToC.0 routing_CVToC.0 ssm_CVToC.0 toc_CVToC.0 driverstateCVToC.0" vType="vehLVOS424" speedFactor="0.99" vaporized=""/>
    <tripinfo id="CAVToC.1" depart="3.30" departLane="entry_0" departPos="199.90" departSpeed="35.90" departDelay="0.00" arrival="171.50" arrivalLane="e0_0" arrivalPos="4800.00" arrivalSpeed="31.24" duration="168.20" routeLength="4800.10" waitingTime="0.00" waitingCount="0" stopTime="0.00" timeLoss="34.47" rerouteNo="0" devices="tripinfo_CAVToC.1 routing_CAVToC.1 ssm_CAVToC.1 toc_CAVToC.1 driverstateCAVToC.1" vType="vehLVOS753" speedFactor="0.99" vaporized=""/>
    <tripinfo id="CVToC.2" depart="4.10" departLane="entry_0" departPos="165.29" departSpeed="30.10" departDelay="0.00" arrival="173.20" arrivalLane="e0_0" arrivalPos="4800.00" arrivalSpeed="30.08" duration="169.10" routeLength="4834.71" waitingTime="0.00" waitingCount="0" stopTime="0.00" timeLoss="8.42" rerouteNo="0" devices="tripinfo_CVToC.2 routing_CVToC.2 ssm_CVToC.2 toc_CVToC.2 driverstateCVToC.2" vType="vehLVOS819" speedFactor="0.83" vaporized=""/>
    <tripinfo id="CVToC.1" depart="3.00" departLane="entry_1" departPos="127.75" departSpeed="29.79" departDelay="0.00" arrival="173.50" arrivalLane="e0_1" arrivalPos="4800.00" arrivalSpeed="33.79" duration="170.50" routeLength="4872.25" waitingTime="0.00" waitingCount="0" stopTime="0.00" timeLoss="30.24" rerouteNo="0" devices="tripinfo_CVToC.1 routing_CVToC.1 ssm_CVToC.1 toc_CVToC.1 driverstateCVToC.1" vType="vehLVOS230" speedFactor="0.96" vaporized=""/>
    <tripinfo id="CAVToC.2" depart="3.40" departLane="entry_1" departPos="75.20" departSpeed="29.93" departDelay="0.00" arrival="175.10" arrivalLane="e0_1" arrivalPos="4800.00" arrivalSpeed="30.43" duration="171.70" routeLength="4924.80" waitingTime="0.00" waitingCount="0" stopTime="0.00" timeLoss="10.21" rerouteNo="0" devices="tripinfo_CAVToC.2 routing_CAVToC.2 ssm_CAVToC.2 toc_CAVToC.2 driverstateCAVToC.2" vType="vehLVOS461" speedFactor="0.84" vaporized=""/>
    <tripinfo id="CVToC.3" depart="4.50" departLane="entry_0" departPos="104.39" departSpeed="30.56" departDelay="0.00" arrival="176.00" arrivalLane="e0_0" arrivalPos="4800.00" arrivalSpeed="31.96" duration="171.50" routeLength="4895.61" waitingTime="0.00" waitingCount="0" stopTime="0.00" timeLoss="32.46" rerouteNo="0" devices="tripinfo_CVToC.3 routing_CVToC.3 ssm_CVToC.3 toc_CVToC.3 driverstateCVToC.3" vType="vehLVOS162" speedFactor="0.98" vaporized=""/>
    <tripinfo id="LV.1" depart="5.90" departLane="entry_1" departPos="30.29" departSpeed="37.34" departDelay="0.00" arrival="176.40" arrivalLane="e0_1" arrivalPos="4800.00" arrivalSpeed="33.72" duration="170.50" routeLength="4969.71" waitingTime="0.00" waitingCount="0" stopTime="0.00" timeLoss="37.40" rerouteNo="0" devices="tripinfo_LV.1 routing_LV.1 ssm_LV.1" vType="vehLVOS936" speedFactor="1.03" vaporized=""/>
    <tripinfo id="LV.0" depart="5.70" departLane="entry_0" departPos="73.24" departSpeed="35.18" departDelay="0.00" arrival="176.90" arrivalLane="e0_0" arrivalPos="4800.00" arrivalSpeed="32.70" duration="171.20" routeLength="4926.76" waitingTime="0.00" waitingCount="0" stopTime="0.00" timeLoss="31.12" rerouteNo="0" devices="tripinfo_LV.0 routing_LV.0 ssm_LV.0" vType="vehLVOS40" speedFactor="0.97" vaporized=""/>
    <tripinfo id="CVToC.5" depart="7.60" departLane="entry_1" departPos="29.59" departSpeed="29.24" departDelay="0.00" arrival="178.20" arrivalLane="e0_1" arrivalPos="4800.00" arrivalSpeed="29.22" duration="170.60" routeLength="4970.41" waitingTime="0.00" waitingCount="0" stopTime="0.00" timeLoss="0.58" rerouteNo="0" devices="tripinfo_CVToC.5 routing_CVToC.5 ssm_CVToC.5 toc_CVToC.5 driverstateCVToC.5" vType="vehLVOS424" speedFactor="0.81" vaporized=""/>
    <tripinfo id="CVToC.7" depart="9.60" departLane="entry_1" departPos="3.17" departSpeed="30.25" departDelay="0.60" arrival="179.10" arrivalLane="e0_1" arrivalPos="4800.00" arrivalSpeed="30.33" duration="169.50" routeLength="4996.83" waitingTime="0.00" waitingCount="0" stopTime="0.00" timeLoss="38.01" rerouteNo="0" devices="tripinfo_CVToC.7 routing_CVToC.7 ssm_CVToC.7 toc_CVToC.7 driverstateCVToC.7" vType="vehLVOS69" speedFactor="1.05" vaporized=""/>
    <tripinfo id="CVToC.4" depart="6.80" departLane="entry_0" departPos="39.44" departSpeed="34.61" departDelay="0.20" arrival="179.20" arrivalLane="e0_0" arrivalPos="4800.00" arrivalSpeed="30.51" duration="172.40" routeLength="4960.56" waitingTime="0.00" waitingCount="0" stopTime="0.00" timeLoss="29.79" rerouteNo="0" devices="tripinfo_CVToC.4 routing_CVToC.4 ssm_CVToC.4 toc_CVToC.4 driverstateCVToC.4" vType="vehLVOS821" speedFactor="0.96" vaporized=""/>
    <tripinfo id="CAVToC.5" depart="12.50" departLane="entry_1" departPos="3.39" departSpeed="31.08" departDelay="0.60" arrival="181.70" arrivalLane="e0_1" arrivalPos="4800.00" arrivalSpeed="34.24" duration="169.20" routeLength="4996.61" waitingTime="0.00" waitingCount="0" stopTime="0.00" timeLoss="40.22" rerouteNo="0" devices="tripinfo_CAVToC.5 routing_CAVToC.5 ssm_CAVToC.5 toc_CAVToC.5 driverstateCAVToC.5" vType="vehLVOS82" speedFactor="1.07" vaporized=""/>
    <tripinfo id="CVToC.8" depart="15.20" departLane="entry_1" departPos="6.76" departSpeed="31.57" departDelay="5.60" arrival="182.70" arrivalLane="e0_1" arrivalPos="4800.00" arrivalSpeed="34.91" duration="167.50" routeLength="4993.24" waitingTime="0.00" waitingCount="0" stopTime="0.00" timeLoss="31.62" rerouteNo="0" devices="tripinfo_CVToC.8 routing_CVToC.8 ssm_CVToC.8 toc_CVToC.8 driverstateCVToC.8" vType="vehLVOS813" speedFactor="1.02" vaporized=""/>
    <tripinfo id="CAVToC.3" depart="8.20" departLane="entry_0" departPos="6.44" departSpeed="34.57" departDelay="0.10" arrival="182.80" arrivalLane="e0_0" arrivalPos="4800.00" arrivalSpeed="34.35" duration="174.60" routeLength="4993.56" waitingTime="0.00" waitingCount="0" stopTime="0.00" timeLoss="39.32" rerouteNo="0" devices="tripinfo_CAVToC.3 routing_CAVToC.3 ssm_CAVToC.3 toc_CAVToC.3 driverstateCAVToC.3" vType="vehLVOS832" speedFactor="1.02" vaporized=""/>
    <tripinfo id="LV.2" depart="13.80" departLane="entry_0" departPos="3.12" departSpeed="34.54" departDelay="1.20" arrival="183.70" arrivalLane="e0_1" arrivalPos="4800.00" arrivalSpeed="34.52" duration="169.90" routeLength="4996.88" waitingTime="0.00" waitingCount="0" stopTime="0.00" timeLoss="25.15" rerouteNo="0" devices="tripinfo_LV.2 routing_LV.2 ssm_LV.2" vType="vehLVOS870" speedFactor="0.96" vaporized=""/>
    <tripinfo id="CAVToC.4" depart="10.60" departLane="entry_0" departPos="1.50" departSpeed="28.46" departDelay="1.50" arrival="184.70" arrivalLane="e0_0" arrivalPos="4800.00" arrivalSpeed="35.02" duration="174.10" routeLength="4998.50" waitingTime="0.00" waitingCount="0" stopTime="0.00" timeLoss="31.56" rerouteNo="0" devices="tripinfo_CAVToC.4 routing_CAVToC.4 ssm_CAVToC.4 toc_CAVToC.4 driverstateCAVToC.4" vType="vehLVOS225" speedFactor="0.97" vaporized=""/>
    <tripinfo id="CVToC.9" depart="19.80" departLane="entry_0" departPos="23.16" departSpeed="28.35" departDelay="1.20" arrival="185.80" arrivalLane="e0_1" arrivalPos="4800.00" arrivalSpeed="33.79" duration="166.00" routeLength="4976.84" waitingTime="0.00" waitingCount="0" stopTime="0.00" timeLoss="22.32" rerouteNo="0" devices="tripinfo_CVToC.9 routing_CVToC.9 ssm_CVToC.9 toc_CVToC.9 driverstateCVToC.9" vType="vehLVOS41" speedFactor="0.96" vaporized=""/>
    <tripinfo id="LV.3" depart="20.80" departLane="entry_1" departPos="2.67" departSpeed="30.16" departDelay="4.90" arrival="186.80" arrivalLane="e0_1" arrivalPos="4800.00" arrivalSpeed="35.42" duration="166.00" routeLength="4997.33" waitingTime="0.00" waitingCount="0" stopTime="0.00" timeLoss="48.58" rerouteNo="0" devices="tripinfo_LV.3 routing_LV.3 ssm_LV.3" vType="vehLVOS55" speedFactor="1.18" vaporized=""/>
    <tripinfo id="CVToC.6" depart="16.50" departLane="entry_0" departPos="2.22" departSpeed="32.64" departDelay="8.60" arrival="186.90" arrivalLane="e0_0" arrivalPos="4800.00" arrivalSpeed="34.59" duration="170.40" routeLength="4997.78" waitingTime="0.00" waitingCount="0" stopTime="0.00" timeLoss="48.62" rerouteNo="0" devices="tripinfo_CVToC.6 routing_CVToC.6 ssm_CVToC.6 toc_CVToC.6 driverstateCVToC.6" vType="vehLVOS879" speedFactor="1.14" vaporized=""/>
    <tripinfo id="CAVToC.7" depart="23.60" departLane="entry_1" departPos="9.92" departSpeed="30.43" departDelay="0.10" arrival="188.10" arrivalLane="e0_1" arrivalPos="4800.00" arrivalSpeed="35.86" duration="164.50" routeLength="4990.08" waitingTime="0.00" waitingCount="0" stopTime="0.00" timeLoss="25.53" rerouteNo="0" devices="tripinfo_CAVToC.7 routing_CAVToC.7 ssm_CAVToC.7 toc_CAVToC.7 driverstateCAVToC.7" vType="vehLVOS121" speedFactor="0.99" vaporized=""/>
    <tripinfo id="CAVToC.10" depart="28.70" departLane="entry_1" departPos="22.18" departSpeed="28.89" departDelay="1.20" arrival="190.20" arrivalLane="e0_0" arrivalPos="4800.00" arrivalSpeed="33.71" duration="161.50" routeLength="4977.82" waitingTime="0.00" waitingCount="0" stopTime="0.00" timeLoss="18.49" rerouteNo="0" devices="tripinfo_CAVToC.10 routing_CAVToC.10 ssm_CAVToC.10 toc_CAVToC.10 driverstateCAVToC.10" vType="vehLVOS211" speedFactor="0.96" vaporized=""/>
    <tripinfo id="CAVToC.12" depart="35.70" departLane="entry_1" departPos="0.88" departSpeed="29.47" departDelay="6.40" arrival="191.50" arrivalLane="e0_1" arrivalPos="4800.00" arrivalSpeed="37.28" duration="155.80" routeLength="4999.12" waitingTime="0.00" waitingCount="0" stopTime="0.00" timeLoss="21.72" rerouteNo="0" devices="tripinfo_CAVToC.12 routing_CAVToC.12 ssm_CAVToC.12 toc_CAVToC.12 driverstateCAVToC.12" vType="vehLVOS78" speedFactor="1.03" vaporized=""/>
    <tripinfo id="CAVToC.9" depart="33.00" departLane="entry_1" departPos="4.79" departSpeed="28.83" departDelay="6.00" arrival="191.70" arrivalLane="e0_0" arrivalPos="4800.00" arrivalSpeed="34.99" duration="158.70" routeLength="4995.21" waitingTime="0.00" waitingCount="0" stopTime="0.00" timeLoss="16.17" rerouteNo="0" devices="tripinfo_CAVToC.9 routing_CAVToC.9 ssm_CAVToC.9 toc_CAVToC.9 driverstateCAVToC.9" vType="vehLVOS159" speedFactor="0.97" vaporized=""/>
    <tripinfo id="CVToC.14" depart="40.30" departLane="entry_1" departPos="3.83" departSpeed="31.10" departDelay="8.50" arrival="201.20" arrivalLane="e0_0" arrivalPos="4800.00" arrivalSpeed="33.57" duration="160.90" routeLength="4996.17" waitingTime="0.00" waitingCount="0" stopTime="0.00" timeLoss="12.32" rerouteNo="0" devices="tripinfo_CVToC.14 routing_CVToC.14 ssm_CVToC.14 toc_CVToC.14 driverstateCVToC.14" vType="vehLVOS328" speedFactor="0.93" vaporized=""/>
    <tripinfo id="CVToC.10" depart="26.60" departLane="entry_1" departPos="39.95" departSpeed="28.10" departDelay="0.70" arrival="203.60" arrivalLane="e0_0" arrivalPos="4800.00" arrivalSpeed="28.10" duration="177.00" routeLength="4960.05" waitingTime="0.00" waitingCount="0" stopTime="0.00" timeLoss="0.49" rerouteNo="0" devices="tripinfo_CVToC.10 routing_CVToC.10 ssm_CVToC.10 toc_CVToC.10 driverstateCVToC.10" vType="vehLVOS555" speedFactor="0.78" vaporized=""/>
    <tripinfo id="LV.7" depart="43.20" departLane="entry_1" departPos="24.13" departSpeed="33.61" departDelay="7.00" arrival="203.90" arrivalLane="e0_1" arrivalPos="4800.00" arrivalSpeed="33.53" duration="160.70" routeLength="4975.87" waitingTime="0.00" waitingCount="0" stopTime="0.00" timeLoss="12.60" rerouteNo="0" devices="tripinfo_LV.7 routing_LV.7 ssm_LV.7" vType="vehLVOS690" speedFactor="0.93" vaporized=""/>
    <tripinfo id="LV.6" depart="38.00" departLane="entry_1" departPos="1.48" departSpeed="31.52" departDelay="2.70" arrival="207.30" arrivalLane="e0_1" arrivalPos="4800.00" arrivalSpeed="31.49" duration="169.30" routeLength="4998.52" waitingTime="0.00" waitingCount="0" stopTime="0.00" timeLoss="10.70" rerouteNo="0" devices="tripinfo_LV.6 routing_LV.6 ssm_LV.6" vType="vehLVOS286" speedFactor="0.87" vaporized=""/>
    <tripinfo id="CVToC.12" depart="29.40" departLane="entry_0" departPos="4.73" departSpeed="14.92" departDelay="0.10" arrival="208.10" arrivalLane="e0_1" arrivalPos="4800.00" arrivalSpeed="32.42" duration="178.70" routeLength="4995.27" waitingTime="0.00" waitingCount="0" stopTime="0.00" timeLoss="24.67" rerouteNo="0" devices="tripinfo_CVToC.12 routing_CVToC.12 ssm_CVToC.12 toc_CVToC.12 driverstateCVToC.12" vType="vehLVOS27" speedFactor="0.90" vaporized=""/>
    <tripinfo id="CAVToC.11" depart="30.30" departLane="entry_1" departPos="7.61" departSpeed="28.00" departDelay="1.10" arrival="208.90" arrivalLane="e0_0" arrivalPos="4800.00" arrivalSpeed="27.97" duration="178.60" routeLength="4992.39" waitingTime="0.00" waitingCount="0" stopTime="0.00" timeLoss="0.18" rerouteNo="0" devices="tripinfo_CAVToC.11 routing_CAVToC.11 ssm_CAVToC.11 toc_CAVToC.11 driverstateCAVToC.11" vType="vehLVOS127" speedFactor="0.78" vaporized=""/>
    <tripinfo id="CAVToC.6" depart="22.40" departLane="entry_0" departPos="82.65" departSpeed="6.41" departDelay="2.10" arrival="210.10" arrivalLane="e0_0" arrivalPos="4800.00" arrivalSpeed="29.01" duration="187.70" routeLength="4917.35" waitingTime="0.00" waitingCount="0" stopTime="0.00" timeLoss="63.70" rerouteNo="0" devices="tripinfo_CAVToC.6 routing_CAVToC.6 ssm_CAVToC.6 toc_CAVToC.6 driverstateCAVToC.6" vType="vehLVOS250" speedFactor="1.10" vaporized=""/>
    <tripinfo id="CAVToC.8" depart="23.90" departLane="entry_0" departPos="20.54" departSpeed="10.00" departDelay="0.00" arrival="213.30" arrivalLane="e0_0" arrivalPos="4800.00" arrivalSpeed="29.43" duration="189.40" routeLength="4979.46" waitingTime="0.00" waitingCount="0" stopTime="0.00" timeLoss="20.30" rerouteNo="0" devices="tripinfo_CAVToC.8 routing_CAVToC.8 ssm_CAVToC.8 toc_CAVToC.8 driverstateCAVToC.8" vType="vehLVOS938" speedFactor="0.82" vaporized=""/>
    <tripinfo id="CAVToC.13" depart="44.80" departLane="entry_1" departPos="8.72" departSpeed="31.57" departDelay="7.60" arrival="213.90" arrivalLane="e0_1" arrivalPos="4800.00" arrivalSpeed="31.54" duration="169.10" routeLength="4991.28" waitingTime="0.00" waitingCount="0" stopTime="0.00" timeLoss="10.99" rerouteNo="0" devices="tripinfo_CAVToC.13 routing_CAVToC.13 ssm_CAVToC.13 toc_CAVToC.13 driverstateCAVToC.13" vType="vehLVOS11" speedFactor="0.87" vaporized=""/>
    <tripinfo id="CVToC.17" depart="47.60" departLane="entry_1" departPos="22.68" departSpeed="32.11" departDelay="8.80" arrival="215.20" arrivalLane="e0_1" arrivalPos="4800.00" arrivalSpeed="34.68" duration="167.60" routeLength="4977.32" waitingTime="0.00" waitingCount="0" stopTime="0.00" timeLoss="29.23" rerouteNo="0" devices="tripinfo_CVToC.17 routing_CVToC.17 ssm_CVToC.17 toc_CVToC.17 driverstateCVToC.17" vType="vehLVOS292" speedFactor="1.00" vaporized=""/>
    <tripinfo id="CVToC.11" depart="34.60" departLane="entry_0" departPos="4.84" departSpeed="19.15" departDelay="6.00" arrival="215.60" arrivalLane="e0_0" arrivalPos="4800.00" arrivalSpeed="34.16" duration="181.00" routeLength="4995.16" waitingTime="0.00" waitingCount="0" stopTime="0.00" timeLoss="41.59" rerouteNo="0" devices="tripinfo_CVToC.11 routing_CVToC.11 ssm_CVToC.11 toc_CVToC.11 driverstateCVToC.11" vType="vehLVOS743" speedFactor="0.99" vaporized=""/>
    <tripinfo id="CAVToC.15" depart="50.00" departLane="entry_1" departPos="27.72" departSpeed="32.19" departDelay="7.90" arrival="216.20" arrivalLane="e0_1" arrivalPos="4800.00" arrivalSpeed="32.89" duration="166.20" routeLength="4972.28" waitingTime="0.00" waitingCount="0" stopTime="0.00" timeLoss="15.42" rerouteNo="0" devices="tripinfo_CAVToC.15 routing_CAVToC.15 ssm_CAVToC.15 toc_CAVToC.15 driverstateCAVToC.15" vType="vehLVOS489" speedFactor="0.91" vaporized=""/>
    <tripinfo id="CVToC.13" depart="38.40" departLane="entry_0" departPos="1.95" departSpeed="21.08" departDelay="7.60" arrival="217.30" arrivalLane="e0_0" arrivalPos="4800.00" arrivalSpeed="34.34" duration="178.90" routeLength="4998.05" waitingTime="0.00" waitingCount="0" stopTime="0.00" timeLoss="33.39" rerouteNo="0" devices="tripinfo_CVToC.13 routing_CVToC.13 ssm_CVToC.13 toc_CVToC.13 driverstateCVToC.13" vType="vehLVOS582" speedFactor="0.95" vaporized=""/>
    <tripinfo id="CVToC.15" depart="42.70" departLane="entry_0" departPos="1.51" departSpeed="22.42" departDelay="9.70" arrival="218.40" arrivalLane="e0_1" arrivalPos="4800.00" arrivalSpeed="37.78" duration="175.70" routeLength="4998.49" waitingTime="0.00" waitingCount="0" stopTime="0.00" timeLoss="49.20" rerouteNo="0" devices="tripinfo_CVToC.15 routing_CVToC.15 ssm_CVToC.15 toc_CVToC.15 driverstateCVToC.15" vType="vehLVOS444" speedFactor="1.09" vaporized=""/>
    <tripinfo id="CAVToC.16" depart="51.70" departLane="entry_1" departPos="0.45" departSpeed="32.81" departDelay="9.30" arrival="219.60" arrivalLane="e0_1" arrivalPos="4800.00" arrivalSpeed="36.20" duration="167.90" routeLength="4999.55" waitingTime="0.00" waitingCount="0" stopTime="0.00" timeLoss="37.26" rerouteNo="0" devices="tripinfo_CAVToC.16 routing_CAVToC.16 ssm_CAVToC.16 toc_CAVToC.16 driverstateCAVToC.16" vType="vehLVOS921" speedFactor="1.06" vaporized=""/>
    <tripinfo id="CVToC.20" depart="54.70" departLane="entry_1" departPos="15.53" departSpeed="33.25" departDelay="13.30" arrival="220.80" arrivalLane="e0_1" arrivalPos="4800.00" arrivalSpeed="38.89" duration="166.10" routeLength="4984.47" waitingTime="0.00" waitingCount="0" stopTime="0.00" timeLoss="38.37" rerouteNo="0" devices="tripinfo_CVToC.20 routing_CVToC.20 ssm_CVToC.20 toc_CVToC.20 driverstateCVToC.20" vType="vehLVOS248" speedFactor="1.08" vaporized=""/>
    <tripinfo id="CVToC.19" depart="57.70" departLane="entry_1" departPos="30.24" departSpeed="33.54" departDelay="18.00" arrival="222.10" arrivalLane="e0_1" arrivalPos="4800.00" arrivalSpeed="38.68" duration="164.40" routeLength="4969.76" waitingTime="0.00" waitingCount="0" stopTime="0.00" timeLoss="37.86" rerouteNo="0" devices="tripinfo_CVToC.19 routing_CVToC.19 ssm_CVToC.19 toc_CVToC.19 driverstateCVToC.19" vType="vehLVOS795" speedFactor="1.09" vaporized=""/>
    <tripinfo id="CVToC.16" depart="46.90" departLane="entry_0" departPos="6.01" departSpeed="22.86" departDelay="10.90" arrival="222.80" arrivalLane="e0_0" arrivalPos="4800.00" arrivalSpeed="36.27" duration="175.90" routeLength="4993.99" waitingTime="0.00" waitingCount="0" stopTime="0.00" timeLoss="43.52" rerouteNo="0" devices="tripinfo_CVToC.16 routing_CVToC.16 ssm_CVToC.16 toc_CVToC.16 driverstateCVToC.16" vType="vehLVOS700" speedFactor="1.05" vaporized=""/>
    <tripinfo id="CVToC.22" depart="59.60" departLane="entry_1" departPos="6.68" departSpeed="34.06" departDelay="14.50" arrival="226.60" arrivalLane="e0_1" arrivalPos="4800.00" arrivalSpeed="40.43" duration="167.00" routeLength="4993.32" waitingTime="0.00" waitingCount="0" stopTime="0.00" timeLoss="43.44" rerouteNo="0" devices="tripinfo_CVToC.22 routing_CVToC.22 ssm_CVToC.22 toc_CVToC.22 driverstateCVToC.22" vType="vehLVOS901" speedFactor="1.12" vaporized=""/>
    <tripinfo id="LV.9" depart="64.00" departLane="entry_1" departPos="4.58" departSpeed="42.17" departDelay="20.40" arrival="228.10" arrivalLane="e0_1" arrivalPos="4800.00" arrivalSpeed="42.17" duration="164.10" routeLength="4995.42" waitingTime="0.00" waitingCount="0" stopTime="0.00" timeLoss="45.54" rerouteNo="0" devices="tripinfo_LV.9 routing_LV.9 ssm_LV.9" vType="vehLVOS963" speedFactor="1.17" vaporized=""/>
    <tripinfo id="LV.4" depart="65.90" departLane="entry_1" departPos="2.04" departSpeed="44.20" departDelay="47.50" arrival="229.30" arrivalLane="e0_1" arrivalPos="4800.00" arrivalSpeed="42.35" duration="163.40" routeLength="4997.96" waitingTime="0.00" waitingCount="0" stopTime="0.00" timeLoss="50.24" rerouteNo="0" devices="tripinfo_LV.4 routing_LV.4 ssm_LV.4" vType="vehLVOS394" speedFactor="1.22" vaporized=""/>
    <tripinfo id="CAVToC.14" depart="50.60" departLane="entry_0" departPos="15.74" departSpeed="23.83" departDelay="13.10" arrival="229.50" arrivalLane="e0_0" arrivalPos="4800.00" arrivalSpeed="32.90" duration="178.90" routeLength="4984.26" waitingTime="0.00" waitingCount="0" stopTime="0.00" timeLoss="27.50" rerouteNo="0" devices="tripinfo_CAVToC.14 routing_CAVToC.14 ssm_CAVToC.14 toc_CAVToC.14 driverstateCAVToC.14" vType="vehLVOS662" speedFactor="0.91" vaporized=""/>
    <tripinfo id="CVToC.18" depart="53.50" departLane="entry_0" departPos="0.17" departSpeed="25.75" departDelay="14.00" arrival="230.80" arrivalLane="e0_0" arrivalPos="4800.00" arrivalSpeed="34.86" duration="177.30" routeLength="4999.83" waitingTime="0.00" waitingCount="0" stopTime="0.00" timeLoss="44.83" rerouteNo="0" devices="tripinfo_CVToC.18 routing_CVToC.18 ssm_CVToC.18 toc_CVToC.18 driverstateCVToC.18" vType="vehLVOS403" speedFactor="1.05" vaporized=""/>
    <tripinfo id="CVToC.24" depart="67.60" departLane="entry_1" departPos="7.71" departSpeed="34.47" departDelay="21.50" arrival="231.60" arrivalLane="e0_1" arrivalPos="4800.00" arrivalSpeed="34.47" duration="164.00" routeLength="4992.29" waitingTime="0.00" waitingCount="0" stopTime="0.00" timeLoss="19.19" rerouteNo="0" devices="tripinfo_CVToC.24 routing_CVToC.24 ssm_CVToC.24 toc_CVToC.24 driverstateCVToC.24" vType="vehLVOS437" speedFactor="0.95" vaporized=""/>
    <tripinfo id="CVToC.21" depart="57.80" departLane="entry_0" departPos="26.16" departSpeed="27.56" departDelay="12.80" arrival="233.10" arrivalLane="e0_0" arrivalPos="4800.00" arrivalSpeed="37.45" duration="175.30" routeLength="4973.84" waitingTime="0.00" waitingCount="0" stopTime="0.00" timeLoss="42.39" rerouteNo="0" devices="tripinfo_CVToC.21 routing_CVToC.21 ssm_CVToC.21 toc_CVToC.21 driverstateCVToC.21" vType="vehLVOS236" speedFactor="1.04" vaporized=""/>
    <tripinfo id="LV.10" depart="66.70" departLane="entry_0" departPos="31.81" departSpeed="31.28" departDelay="13.50" arrival="238.70" arrivalLane="e0_1" arrivalPos="4800.00" arrivalSpeed="31.26" duration="172.00" routeLength="4968.19" waitingTime="0.00" waitingCount="0" stopTime="0.00" timeLoss="13.10" rerouteNo="0" devices="tripinfo_LV.10 routing_LV.10 ssm_LV.10" vType="vehLVOS517" speedFactor="0.87" vaporized=""/>
    <tripinfo id="CAVToC.19" depart="70.30" departLane="entry_1" departPos="6.20" departSpeed="35.45" departDelay="20.60" arrival="240.30" arrivalLane="e0_1" arrivalPos="4800.00" arrivalSpeed="33.07" duration="170.00" routeLength="4993.80" waitingTime="0.00" waitingCount="0" stopTime="0.00" timeLoss="53.52" rerouteNo="0" devices="tripinfo_CAVToC.19 routing_CAVToC.19 ssm_CAVToC.19 toc_CAVToC.19 driverstateCAVToC.19" vType="vehLVOS153" speedFactor="1.19" vaporized=""/>
    <tripinfo id="CVToC.25" depart="72.50" departLane="entry_1" departPos="1.16" departSpeed="35.87" departDelay="23.90" arrival="241.10" arrivalLane="e0_1" arrivalPos="4800.00" arrivalSpeed="33.53" duration="168.60" routeLength="4998.84" waitingTime="0.00" waitingCount="0" stopTime="0.00" timeLoss="43.24" rerouteNo="0" devices="tripinfo_CVToC.25 routing_CVToC.25 ssm_CVToC.25 toc_CVToC.25 driverstateCVToC.25" vType="vehLVOS13" speedFactor="1.10" vaporized=""/>
    <tripinfo id="CVToC.23" depart="60.00" departLane="entry_0" departPos="22.11" departSpeed="28.25" departDelay="14.80" arrival="241.30" arrivalLane="e0_0" arrivalPos="4800.00" arrivalSpeed="30.68" duration="181.30" routeLength="4977.89" waitingTime="0.00" waitingCount="0" stopTime="0.00" timeLoss="19.16" rerouteNo="0" devices="tripinfo_CVToC.23 routing_CVToC.23 ssm_CVToC.23 toc_CVToC.23 driverstateCVToC.23" vType="vehLVOS249" speedFactor="0.85" vaporized=""/>
    <tripinfo id="CAVToC.20" depart="62.30" departLane="entry_0" departPos="10.30" departSpeed="29.26" departDelay="9.90" arrival="242.40" arrivalLane="e0_0" arrivalPos="4800.00" arrivalSpeed="33.00" duration="180.10" routeLength="4989.70" waitingTime="0.00" waitingCount="0" stopTime="0.00" timeLoss="34.29" rerouteNo="0" devices="tripinfo_CAVToC.20 routing_CAVToC.20 ssm_CAVToC.20 toc_CAVToC.20 driverstateCAVToC.20" vType="vehLVOS348" speedFactor="0.95" vaporized=""/>
    <tripinfo id="CAVToC.21" depart="74.70" departLane="entry_1" departPos="2.52" departSpeed="35.59" departDelay="19.90" arrival="245.50" arrivalLane="e0_1" arrivalPos="4800.00" arrivalSpeed="35.59" duration="170.80" routeLength="4997.48" waitingTime="0.00" waitingCount="0" stopTime="0.00" timeLoss="30.33" rerouteNo="0" devices="tripinfo_CAVToC.21 routing_CAVToC.21 ssm_CAVToC.21 toc_CAVToC.21 driverstateCAVToC.21" vType="vehLVOS42" speedFactor="0.99" vaporized=""/>
    <tripinfo id="CAVToC.18" depart="64.70" departLane="entry_0" departPos="7.10" departSpeed="30.09" departDelay="15.20" arrival="246.10" arrivalLane="e0_0" arrivalPos="4800.00" arrivalSpeed="34.28" duration="181.40" routeLength="4992.90" waitingTime="0.00" waitingCount="0" stopTime="0.00" timeLoss="36.10" rerouteNo="0" devices="tripinfo_CAVToC.18 routing_CAVToC.18 ssm_CAVToC.18 toc_CAVToC.18 driverstateCAVToC.18" vType="vehLVOS935" speedFactor="0.95" vaporized=""/>
    <tripinfo id="CVToC.27" depart="78.30" departLane="entry_1" departPos="33.84" departSpeed="32.14" departDelay="21.30" arrival="246.30" arrivalLane="e0_1" arrivalPos="4800.00" arrivalSpeed="37.24" duration="168.00" routeLength="4966.16" waitingTime="0.00" waitingCount="0" stopTime="0.00" timeLoss="40.92" rerouteNo="0" devices="tripinfo_CVToC.27 routing_CVToC.27 ssm_CVToC.27 toc_CVToC.27 driverstateCVToC.27" vType="vehLVOS60" speedFactor="1.08" vaporized=""/>
    <tripinfo id="LV.13" depart="76.80" departLane="entry_1" departPos="68.99" departSpeed="31.99" departDelay="15.70" arrival="248.10" arrivalLane="e0_0" arrivalPos="4800.00" arrivalSpeed="31.94" duration="171.30" routeLength="4931.01" waitingTime="0.00" waitingCount="0" stopTime="0.00" timeLoss="17.11" rerouteNo="0" devices="tripinfo_LV.13 routing_LV.13 ssm_LV.13" vType="vehLVOS192" speedFactor="0.89" vaporized=""/>
    <tripinfo id="CVToC.29" depart="81.30" departLane="entry_1" departPos="44.93" departSpeed="33.04" departDelay="21.90" arrival="248.30" arrivalLane="e0_1" arrivalPos="4800.00" arrivalSpeed="38.10" duration="167.00" routeLength="4955.07" waitingTime="0.00" waitingCount="0" stopTime="0.00" timeLoss="37.30" rerouteNo="0" devices="tripinfo_CVToC.29 routing_CVToC.29 ssm_CVToC.29 toc_CVToC.29 driverstateCVToC.29" vType="vehLVOS58" speedFactor="1.06" vaporized=""/>
    <tripinfo id="CVToC.30" depart="82.30" departLane="entry_1" departPos="8.12" departSpeed="33.20" departDelay="20.70" arrival="249.50" arrivalLane="e0_1" arrivalPos="4800.00" arrivalSpeed="33.91" duration="167.20" routeLength="4991.88" waitingTime="0.00" waitingCount="0" stopTime="0.00" timeLoss="20.17" rerouteNo="0" devices="tripinfo_CVToC.30 routing_CVToC.30 ssm_CVToC.30 toc_CVToC.30 driverstateCVToC.30" vType="vehLVOS186" speedFactor="0.94" vaporized=""/>
    <tripinfo id="LV.14" depart="85.00" departLane="entry_1" departPos="21.19" departSpeed="35.35" departDelay="23.00" arrival="251.20" arrivalLane="e0_1" arrivalPos="4800.00" arrivalSpeed="35.25" duration="166.20" routeLength="4978.81" waitingTime="0.00" waitingCount="0" stopTime="0.00" timeLoss="25.32" rerouteNo="0" devices="tripinfo_LV.14 routing_LV.14 ssm_LV.14" vType="vehLVOS518" speedFactor="0.98" vaporized=""/>