<?xml version="1.0" encoding="UTF-8"?>

<!-- generated on 09/23/20 10:35:52 by Eclipse SUMO Version 1.6.0
<configuration xmlns:xsi="http://www.w3.org/2001/XMLSchema-instance" xsi:noNamespaceSchemaLocation="http://sumo.dlr.de/xsd/sumoConfiguration.xsd">

    <input>
        <net-file value="scenario/UC5_1.net.xml"/>
        <route-files value="scenario/routes_trafficMix_0_trafficDemand_1_driverBehaviour_OS_seed_0.xml"/>
        <additional-files value="scenario/additionalsOutput_trafficMix_0_trafficDemand_1_driverBehaviour_OS_seed_0.xml,scenario/vTypesCAVToC_OS.add.xml,scenario/vTypesCVToC_OS.add.xml,scenario/vTypesLV_OS.add.xml,scenario/shapes.add.xml,scenario/view.add.xml"/>
    </input>

    <output>
        <tripinfo-output value="C:\Users\laborknecht\Aris\workspace\ma-branch\tor-distribution/outputs/simulations/DQN__2020-09-22_18-08-57__20200923-090819/tripinfo_9.xml"/>
    </output>

    <time>
        <step-length value="0.1"/>
    </time>

    <processing>
        <step-method.ballistic value="true"/>
        <ignore-route-errors value="true"/>
        <lanechange.duration value="2.5"/>
    </processing>

    <report>
        <no-step-log value="true"/>
    </report>

    <toc_device>
        <device.toc.ogNewTimeHeadway value="100"/>
        <device.toc.ogNewSpaceHeadway value="5"/>
        <device.toc.ogMaxDecel value="1"/>
        <device.toc.ogChangeRate value="1"/>
    </toc_device>

    <traci_server>
        <remote-port value="51053"/>
    </traci_server>

    <random_number>
        <seed value="1033"/>
    </random_number>

    <gui_only>
        <tracker-interval value="0.1"/>
    </gui_only>

</configuration>
-->

<tripinfos xmlns:xsi="http://www.w3.org/2001/XMLSchema-instance" xsi:noNamespaceSchemaLocation="http://sumo.dlr.de/xsd/tripinfo_file.xsd">
    <tripinfo id="CAVToC.1" depart="3.70" departLane="entry_1" departPos="199.90" departSpeed="35.60" departDelay="0.00" arrival="130.10" arrivalLane="e0_0" arrivalPos="4800.00" arrivalSpeed="40.41" duration="126.40" routeLength="4800.10" waitingTime="0.00" waitingCount="0" stopTime="0.00" timeLoss="7.78" rerouteNo="0" devices="tripinfo_CAVToC.1 routing_CAVToC.1 ssm_CAVToC.1 toc_CAVToC.1 driverstateCAVToC.1" vType="vehLVOS374" speedFactor="1.12" vaporized=""/>
    <tripinfo id="CAVToC.2" depart="5.00" departLane="entry_1" departPos="153.93" departSpeed="36.31" departDelay="0.00" arrival="130.80" arrivalLane="e0_1" arrivalPos="4800.00" arrivalSpeed="42.10" duration="125.80" routeLength="4846.07" waitingTime="0.00" waitingCount="0" stopTime="0.00" timeLoss="10.62" rerouteNo="0" devices="tripinfo_CAVToC.2 routing_CAVToC.2 ssm_CAVToC.2 toc_CAVToC.2 driverstateCAVToC.2" vType="vehLVOS746" speedFactor="1.17" vaporized=""/>
    <tripinfo id="CVToC.0" depart="0.30" departLane="entry_0" departPos="199.90" departSpeed="36.57" departDelay="0.00" arrival="131.90" arrivalLane="e0_0" arrivalPos="4800.00" arrivalSpeed="36.41" duration="131.60" routeLength="4800.10" waitingTime="0.00" waitingCount="0" stopTime="0.00" timeLoss="0.33" rerouteNo="0" devices="tripinfo_CVToC.0 routing_CVToC.0 ssm_CVToC.0 toc_CVToC.0 driverstateCVToC.0" vType="vehLVOS588" speedFactor="1.01" vaporized=""/>
    <tripinfo id="CAVToC.0" depart="1.10" departLane="entry_1" departPos="199.90" departSpeed="34.84" departDelay="0.00" arrival="139.10" arrivalLane="e0_0" arrivalPos="4800.00" arrivalSpeed="34.81" duration="138.00" routeLength="4800.10" waitingTime="0.00" waitingCount="0" stopTime="0.00" timeLoss="0.13" rerouteNo="0" devices="tripinfo_CAVToC.0 routing_CAVToC.0 ssm_CAVToC.0 toc_CAVToC.0 driverstateCAVToC.0" vType="vehLVOS22" speedFactor="0.96" vaporized=""/>
    <tripinfo id="CVToC.2" depart="5.10" departLane="entry_1" departPos="82.64" departSpeed="36.34" departDelay="0.00" arrival="141.80" arrivalLane="e0_0" arrivalPos="4800.00" arrivalSpeed="36.39" duration="136.70" routeLength="4917.36" waitingTime="0.00" waitingCount="0" stopTime="0.00" timeLoss="1.62" rerouteNo="0" devices="tripinfo_CVToC.2 routing_CVToC.2 ssm_CVToC.2 toc_CVToC.2 driverstateCVToC.2" vType="vehLVOS292" speedFactor="1.01" vaporized=""/>
    <tripinfo id="CVToC.1" depart="2.60" departLane="entry_0" departPos="199.90" departSpeed="34.22" departDelay="0.00" arrival="143.10" arrivalLane="e0_0" arrivalPos="4800.00" arrivalSpeed="34.15" duration="140.50" routeLength="4800.10" waitingTime="0.00" waitingCount="0" stopTime="0.00" timeLoss="0.16" rerouteNo="0" devices="tripinfo_CVToC.1 routing_CVToC.1 ssm_CVToC.1 toc_CVToC.1 driverstateCVToC.1" vType="vehLVOS968" speedFactor="0.95" vaporized=""/>
    <tripinfo id="CAVToC.3" depart="5.40" departLane="entry_1" departPos="7.75" departSpeed="36.47" departDelay="0.00" arrival="145.50" arrivalLane="e0_1" arrivalPos="4800.00" arrivalSpeed="38.90" duration="140.10" routeLength="4992.25" waitingTime="0.00" waitingCount="0" stopTime="0.00" timeLoss="11.76" rerouteNo="0" devices="tripinfo_CAVToC.3 routing_CAVToC.3 ssm_CAVToC.3 toc_CAVToC.3 driverstateCAVToC.3" vType="vehLVOS277" speedFactor="1.08" vaporized=""/>
    <tripinfo id="CAVToC.4" depart="6.90" departLane="entry_0" departPos="112.30" departSpeed="34.77" departDelay="0.00" arrival="146.20" arrivalLane="e0_1" arrivalPos="4800.00" arrivalSpeed="41.27" duration="139.30" routeLength="4887.70" waitingTime="0.00" waitingCount="0" stopTime="0.00" timeLoss="26.66" rerouteNo="0" devices="tripinfo_CAVToC.4 routing_CAVToC.4 ssm_CAVToC.4 toc_CAVToC.4 driverstateCAVToC.4" vType="vehLVOS376" speedFactor="1.20" vaporized=""/>
    <tripinfo id="CAVToC.6" depart="9.60" departLane="entry_1" departPos="83.15" departSpeed="35.80" departDelay="0.00" arrival="150.20" arrivalLane="e0_1" arrivalPos="4800.00" arrivalSpeed="35.74" duration="140.60" routeLength="4916.85" waitingTime="0.00" waitingCount="0" stopTime="0.00" timeLoss="3.20" rerouteNo="0" devices="tripinfo_CAVToC.6 routing_CAVToC.6 ssm_CAVToC.6 toc_CAVToC.6 driverstateCAVToC.6" vType="vehLVOS672" speedFactor="0.99" vaporized=""/>
    <tripinfo id="CVToC.3" depart="6.80" departLane="entry_0" departPos="199.90" departSpeed="33.72" departDelay="0.20" arrival="150.30" arrivalLane="e0_0" arrivalPos="4800.00" arrivalSpeed="33.72" duration="143.50" routeLength="4800.10" waitingTime="0.00" waitingCount="0" stopTime="0.00" timeLoss="1.09" rerouteNo="0" devices="tripinfo_CVToC.3 routing_CVToC.3 ssm_CVToC.3 toc_CVToC.3 driverstateCVToC.3" vType="vehLVOS844" speedFactor="0.93" vaporized=""/>
    <tripinfo id="CAVToC.8" depart="11.90" departLane="entry_1" departPos="72.81" departSpeed="31.02" departDelay="0.00" arrival="151.70" arrivalLane="e0_1" arrivalPos="4800.00" arrivalSpeed="37.56" duration="139.80" routeLength="4927.19" waitingTime="0.00" waitingCount="0" stopTime="0.00" timeLoss="8.57" rerouteNo="0" devices="tripinfo_CAVToC.8 routing_CAVToC.8 ssm_CAVToC.8 toc_CAVToC.8 driverstateCAVToC.8" vType="vehLVOS602" speedFactor="1.04" vaporized=""/>
    <tripinfo id="CAVToC.5" depart="9.20" departLane="entry_0" departPos="121.30" departSpeed="34.77" departDelay="0.00" arrival="152.70" arrivalLane="e0_0" arrivalPos="4800.00" arrivalSpeed="34.96" duration="143.50" routeLength="4878.70" waitingTime="0.00" waitingCount="0" stopTime="0.00" timeLoss="4.05" rerouteNo="0" devices="tripinfo_CAVToC.5 routing_CAVToC.5 ssm_CAVToC.5 toc_CAVToC.5 driverstateCAVToC.5" vType="vehLVOS29" speedFactor="0.97" vaporized=""/>
    <tripinfo id="CAVToC.9" depart="13.60" departLane="entry_1" departPos="26.24" departSpeed="32.39" departDelay="0.00" arrival="155.60" arrivalLane="e0_1" arrivalPos="4800.00" arrivalSpeed="40.07" duration="142.00" routeLength="4973.76" waitingTime="0.00" waitingCount="0" stopTime="0.00" timeLoss="30.09" rerouteNo="0" devices="tripinfo_CAVToC.9 routing_CAVToC.9 ssm_CAVToC.9 toc_CAVToC.9 driverstateCAVToC.9" vType="vehLVOS502" speedFactor="1.23" vaporized=""/>
    <tripinfo id="CVToC.5" depart="16.60" departLane="entry_1" departPos="7.27" departSpeed="29.90" departDelay="0.40" arrival="157.00" arrivalLane="e0_0" arrivalPos="4800.00" arrivalSpeed="40.35" duration="140.40" routeLength="4992.73" waitingTime="0.00" waitingCount="0" stopTime="0.00" timeLoss="17.71" rerouteNo="0" devices="tripinfo_CVToC.5 routing_CVToC.5 ssm_CVToC.5 toc_CVToC.5 driverstateCVToC.5" vType="vehLVOS703" speedFactor="1.13" vaporized=""/>
    <tripinfo id="CVToC.7" depart="20.40" departLane="entry_1" departPos="36.40" departSpeed="30.84" departDelay="2.00" arrival="157.00" arrivalLane="e0_1" arrivalPos="4800.00" arrivalSpeed="40.28" duration="136.60" routeLength="4963.60" waitingTime="0.00" waitingCount="0" stopTime="0.00" timeLoss="13.70" rerouteNo="0" devices="tripinfo_CVToC.7 routing_CVToC.7 ssm_CVToC.7 toc_CVToC.7 driverstateCVToC.7" vType="vehLVOS74" speedFactor="1.12" vaporized=""/>
    <tripinfo id="LV.1" depart="12.20" departLane="entry_0" departPos="5.24" departSpeed="35.19" departDelay="0.00" arrival="162.90" arrivalLane="e0_0" arrivalPos="4800.00" arrivalSpeed="35.08" duration="150.70" routeLength="4994.76" waitingTime="0.00" waitingCount="0" stopTime="0.00" timeLoss="8.68" rerouteNo="0" devices="tripinfo_LV.1 routing_LV.1 ssm_LV.1" vType="vehLVOS439" speedFactor="0.97" vaporized=""/>
    <tripinfo id="CAVToC.12" depart="22.30" departLane="entry_1" departPos="16.60" departSpeed="31.17" departDelay="0.00" arrival="166.60" arrivalLane="e0_0" arrivalPos="4800.00" arrivalSpeed="34.89" duration="144.30" routeLength="4983.40" waitingTime="0.00" waitingCount="0" stopTime="0.00" timeLoss="1.72" rerouteNo="0" devices="tripinfo_CAVToC.12 routing_CAVToC.12 ssm_CAVToC.12 toc_CAVToC.12 driverstateCAVToC.12" vType="vehLVOS29" speedFactor="0.97" vaporized=""/>
    <tripinfo id="CVToC.6" depart="17.30" departLane="entry_0" departPos="0.08" departSpeed="26.90" departDelay="0.00" arrival="169.10" arrivalLane="e0_1" arrivalPos="4800.00" arrivalSpeed="35.09" duration="151.80" routeLength="4999.92" waitingTime="0.00" waitingCount="0" stopTime="0.00" timeLoss="9.53" rerouteNo="0" devices="tripinfo_CVToC.6 routing_CVToC.6 ssm_CVToC.6 toc_CVToC.6 driverstateCVToC.6" vType="vehLVOS52" speedFactor="0.97" vaporized=""/>
    <tripinfo id="CAVToC.10" depart="14.60" departLane="entry_0" departPos="0.90" departSpeed="32.31" departDelay="0.50" arrival="170.50" arrivalLane="e0_1" arrivalPos="4800.00" arrivalSpeed="37.02" duration="155.90" routeLength="4999.10" waitingTime="0.00" waitingCount="0" stopTime="0.00" timeLoss="25.06" rerouteNo="0" devices="tripinfo_CAVToC.10 routing_CAVToC.10 ssm_CAVToC.10 toc_CAVToC.10 driverstateCAVToC.10" vType="vehLVOS280" speedFactor="1.06" vaporized=""/>
    <tripinfo id="CVToC.4" depart="9.50" departLane="entry_0" departPos="51.63" departSpeed="35.18" departDelay="0.00" arrival="171.40" arrivalLane="e0_1" arrivalPos="4800.00" arrivalSpeed="37.08" duration="161.90" routeLength="4948.37" waitingTime="0.00" waitingCount="0" stopTime="0.00" timeLoss="31.87" rerouteNo="0" devices="tripinfo_CVToC.4 routing_CVToC.4 ssm_CVToC.4 toc_CVToC.4 driverstateCVToC.4" vType="vehLVOS777" speedFactor="1.05" vaporized=""/>
    <tripinfo id="LV.0" depart="10.90" departLane="entry_1" departPos="122.09" departSpeed="30.25" departDelay="0.00" arrival="172.80" arrivalLane="e0_0" arrivalPos="4800.00" arrivalSpeed="30.05" duration="161.90" routeLength="4877.91" waitingTime="0.00" waitingCount="0" stopTime="0.00" timeLoss="0.67" rerouteNo="0" devices="tripinfo_LV.0 routing_LV.0 ssm_LV.0" vType="vehLVOS145" speedFactor="0.84" vaporized=""/>
    <tripinfo id="CAVToC.7" depart="11.20" departLane="entry_0" departPos="34.29" departSpeed="34.51" departDelay="0.00" arrival="174.00" arrivalLane="e0_1" arrivalPos="4800.00" arrivalSpeed="35.39" duration="162.80" routeLength="4965.71" waitingTime="0.00" waitingCount="0" stopTime="0.00" timeLoss="23.12" rerouteNo="0" devices="tripinfo_CAVToC.7 routing_CAVToC.7 ssm_CAVToC.7 toc_CAVToC.7 driverstateCAVToC.7" vType="vehLVOS198" speedFactor="0.98" vaporized=""/>
    <tripinfo id="LV.5" depart="27.00" departLane="entry_0" departPos="22.95" departSpeed="41.55" departDelay="3.10" arrival="183.90" arrivalLane="e0_1" arrivalPos="4800.00" arrivalSpeed="41.52" duration="156.90" routeLength="4977.05" waitingTime="0.00" waitingCount="0" stopTime="0.00" timeLoss="37.02" rerouteNo="0" devices="tripinfo_LV.5 routing_LV.5 ssm_LV.5" vType="vehLVOS788" speedFactor="1.15" vaporized=""/>
    <tripinfo id="CAVToC.11" depart="20.80" departLane="entry_0" departPos="23.80" departSpeed="26.45" departDelay="1.00" arrival="185.20" arrivalLane="e0_0" arrivalPos="4800.00" arrivalSpeed="31.37" duration="164.40" routeLength="4976.20" waitingTime="0.00" waitingCount="0" stopTime="0.00" timeLoss="5.99" rerouteNo="0" devices="tripinfo_CAVToC.11 routing_CAVToC.11 ssm_CAVToC.11 toc_CAVToC.11 driverstateCAVToC.11" vType="vehLVOS508" speedFactor="0.87" vaporized=""/>
    <tripinfo id="LV.2" depart="14.70" departLane="entry_1" departPos="42.69" departSpeed="28.65" departDelay="0.10" arrival="188.10" arrivalLane="e0_0" arrivalPos="4800.00" arrivalSpeed="28.64" duration="173.40" routeLength="4957.31" waitingTime="0.00" waitingCount="0" stopTime="0.00" timeLoss="0.32" rerouteNo="0" devices="tripinfo_LV.2 routing_LV.2 ssm_LV.2" vType="vehLVOS14" speedFactor="0.79" vaporized=""/>
    <tripinfo id="CAVToC.14" depart="28.00" departLane="entry_1" departPos="52.05" departSpeed="29.74" departDelay="0.40" arrival="188.60" arrivalLane="e0_1" arrivalPos="4800.00" arrivalSpeed="32.39" duration="160.60" routeLength="4947.95" waitingTime="0.00" waitingCount="0" stopTime="0.00" timeLoss="8.17" rerouteNo="0" devices="tripinfo_CAVToC.14 routing_CAVToC.14 ssm_CAVToC.14 toc_CAVToC.14 driverstateCAVToC.14" vType="vehLVOS422" speedFactor="0.90" vaporized=""/>
    <tripinfo id="LV.6" depart="30.20" departLane="entry_1" departPos="5.73" departSpeed="36.01" departDelay="0.80" arrival="190.90" arrivalLane="e0_1" arrivalPos="4800.00" arrivalSpeed="35.97" duration="160.70" routeLength="4994.27" waitingTime="0.00" waitingCount="0" stopTime="0.00" timeLoss="21.94" rerouteNo="0" devices="tripinfo_LV.6 routing_LV.6 ssm_LV.6" vType="vehLVOS339" speedFactor="1.00" vaporized=""/>
    <tripinfo id="CVToC.8" depart="33.10" departLane="entry_1" departPos="7.72" departSpeed="35.73" departDelay="0.50" arrival="192.40" arrivalLane="e0_1" arrivalPos="4800.00" arrivalSpeed="35.35" duration="159.30" routeLength="4992.28" waitingTime="0.00" waitingCount="0" stopTime="0.00" timeLoss="51.07" rerouteNo="0" devices="tripinfo_CVToC.8 routing_CVToC.8 ssm_CVToC.8 toc_CVToC.8 driverstateCVToC.8" vType="vehLVOS738" speedFactor="1.28" vaporized=""/>
    <tripinfo id="CAVToC.17" depart="35.40" departLane="entry_1" departPos="13.39" departSpeed="35.25" departDelay="2.60" arrival="193.90" arrivalLane="e0_1" arrivalPos="4800.00" arrivalSpeed="35.84" duration="158.50" routeLength="4986.61" waitingTime="0.00" waitingCount="0" stopTime="0.00" timeLoss="19.35" rerouteNo="0" devices="tripinfo_CAVToC.17 routing_CAVToC.17 ssm_CAVToC.17 toc_CAVToC.17 driverstateCAVToC.17" vType="vehLVOS298" speedFactor="0.99" vaporized=""/>
    <tripinfo id="CAVToC.13" depart="24.80" departLane="entry_1" departPos="29.78" departSpeed="29.31" departDelay="1.00" arrival="194.50" arrivalLane="e0_0" arrivalPos="4800.00" arrivalSpeed="29.31" duration="169.70" routeLength="4970.22" waitingTime="0.00" waitingCount="0" stopTime="0.00" timeLoss="0.06" rerouteNo="0" devices="tripinfo_CAVToC.13 routing_CAVToC.13 ssm_CAVToC.13 toc_CAVToC.13 driverstateCAVToC.13" vType="vehLVOS123" speedFactor="0.81" vaporized=""/>
    <tripinfo id="CVToC.9" depart="36.50" departLane="entry_0" departPos="13.33" departSpeed="31.51" departDelay="1.70" arrival="195.00" arrivalLane="e0_1" arrivalPos="4800.00" arrivalSpeed="34.80" duration="158.50" routeLength="4986.67" waitingTime="0.00" waitingCount="0" stopTime="0.00" timeLoss="15.14" rerouteNo="0" devices="tripinfo_CVToC.9 routing_CVToC.9 ssm_CVToC.9 toc_CVToC.9 driverstateCVToC.9" vType="vehLVOS844" speedFactor="0.96" vaporized=""/>
    <tripinfo id="CAVToC.18" depart="33.90" departLane="entry_0" departPos="10.64" departSpeed="31.23" departDelay="0.70" arrival="196.00" arrivalLane="e0_1" arrivalPos="4800.00" arrivalSpeed="35.55" duration="162.10" routeLength="4989.36" waitingTime="0.00" waitingCount="0" stopTime="0.00" timeLoss="38.30" rerouteNo="0" devices="tripinfo_CAVToC.18 routing_CAVToC.18 ssm_CAVToC.18 toc_CAVToC.18 driverstateCAVToC.18" vType="vehLVOS996" speedFactor="1.12" vaporized=""/>
    <tripinfo id="CAVToC.15" depart="28.40" departLane="entry_0" departPos="8.66" departSpeed="31.86" departDelay="0.30" arrival="196.40" arrivalLane="e0_0" arrivalPos="4800.00" arrivalSpeed="31.13" duration="168.00" routeLength="4991.34" waitingTime="0.00" waitingCount="0" stopTime="0.00" timeLoss="11.31" rerouteNo="0" devices="tripinfo_CAVToC.15 routing_CAVToC.15 ssm_CAVToC.15 toc_CAVToC.15 driverstateCAVToC.15" vType="vehLVOS452" speedFactor="0.88" vaporized=""/>
    <tripinfo id="CAVToC.16" depart="32.40" departLane="entry_0" departPos="51.59" departSpeed="30.21" departDelay="0.10" arrival="197.60" arrivalLane="e0_0" arrivalPos="4800.00" arrivalSpeed="31.58" duration="165.20" routeLength="4948.41" waitingTime="0.00" waitingCount="0" stopTime="0.00" timeLoss="22.24" rerouteNo="0" devices="tripinfo_CAVToC.16 routing_CAVToC.16 ssm_CAVToC.16 toc_CAVToC.16 driverstateCAVToC.16" vType="vehLVOS853" speedFactor="0.96" vaporized=""/>
    <tripinfo id="CAVToC.19" depart="37.00" departLane="entry_1" departPos="12.76" departSpeed="28.23" departDelay="0.80" arrival="214.20" arrivalLane="e0_1" arrivalPos="4800.00" arrivalSpeed="28.15" duration="177.20" routeLength="4987.24" waitingTime="0.00" waitingCount="0" stopTime="0.00" timeLoss="0.53" rerouteNo="0" devices="tripinfo_CAVToC.19 routing_CAVToC.19 ssm_CAVToC.19 toc_CAVToC.19 driverstateCAVToC.19" vType="vehLVOS565" speedFactor="0.78" vaporized=""/>
    <tripinfo id="CAVToC.21" depart="41.90" departLane="entry_1" departPos="65.57" departSpeed="29.37" departDelay="1.90" arrival="215.90" arrivalLane="e0_1" arrivalPos="4800.00" arrivalSpeed="30.80" duration="174.00" routeLength="4934.43" waitingTime="0.00" waitingCount="0" stopTime="0.00" timeLoss="44.82" rerouteNo="0" devices="tripinfo_CAVToC.21 routing_CAVToC.21 ssm_CAVToC.21 toc_CAVToC.21 driverstateCAVToC.21" vType="vehLVOS951" speedFactor="1.06" vaporized=""/>
    <tripinfo id="CVToC.10" depart="39.40" departLane="entry_0" departPos="25.60" departSpeed="31.90" departDelay="0.20" arrival="216.00" arrivalLane="e0_0" arrivalPos="4800.00" arrivalSpeed="30.36" duration="176.60" routeLength="4974.40" waitingTime="0.00" waitingCount="0" stopTime="0.00" timeLoss="41.17" rerouteNo="0" devices="tripinfo_CVToC.10 routing_CVToC.10 ssm_CVToC.10 toc_CVToC.10 driverstateCVToC.10" vType="vehLVOS837" speedFactor="1.02" vaporized=""/>
    <tripinfo id="CAVToC.20" depart="41.60" departLane="entry_0" departPos="21.35" departSpeed="28.17" departDelay="2.00" arrival="217.50" arrivalLane="e0_0" arrivalPos="4800.00" arrivalSpeed="32.34" duration="175.90" routeLength="4978.65" waitingTime="0.00" waitingCount="0" stopTime="0.00" timeLoss="22.70" rerouteNo="0" devices="tripinfo_CAVToC.20 routing_CAVToC.20 ssm_CAVToC.20 toc_CAVToC.20 driverstateCAVToC.20" vType="vehLVOS267" speedFactor="0.90" vaporized=""/>
    <tripinfo id="CVToC.11" depart="42.60" departLane="entry_1" departPos="7.34" departSpeed="30.25" departDelay="1.10" arrival="217.70" arrivalLane="e0_1" arrivalPos="4800.00" arrivalSpeed="31.79" duration="175.10" routeLength="4992.66" waitingTime="0.00" waitingCount="0" stopTime="0.00" timeLoss="43.39" rerouteNo="0" devices="tripinfo_CVToC.11 routing_CVToC.11 ssm_CVToC.11 toc_CVToC.11 driverstateCVToC.11" vType="vehLVOS781" speedFactor="1.05" vaporized=""/>
    <tripinfo id="LV.7" depart="46.60" departLane="entry_1" departPos="0.01" departSpeed="41.47" departDelay="4.40" arrival="218.60" arrivalLane="e0_1" arrivalPos="4800.00" arrivalSpeed="32.18" duration="172.00" routeLength="4999.99" waitingTime="0.00" waitingCount="0" stopTime="0.00" timeLoss="51.38" rerouteNo="0" devices="tripinfo_LV.7 routing_LV.7 ssm_LV.7" vType="vehLVOS481" speedFactor="1.15" vaporized=""/>
    <tripinfo id="CVToC.12" depart="47.50" departLane="entry_0" departPos="118.54" departSpeed="28.12" departDelay="2.30" arrival="220.80" arrivalLane="e0_0" arrivalPos="4800.00" arrivalSpeed="28.81" duration="173.30" routeLength="4881.46" waitingTime="0.00" waitingCount="0" stopTime="0.00" timeLoss="4.08" rerouteNo="0" devices="tripinfo_CVToC.12 routing_CVToC.12 ssm_CVToC.12 toc_CVToC.12 driverstateCVToC.12" vType="vehLVOS857" speedFactor="0.80" vaporized=""/>
    <tripinfo id="LV.8" depart="48.20" departLane="entry_1" departPos="12.25" departSpeed="32.88" departDelay="0.10" arrival="221.60" arrivalLane="e0_1" arrivalPos="4800.00" arrivalSpeed="32.82" duration="173.40" routeLength="4987.75" waitingTime="0.00" waitingCount="0" stopTime="0.00" timeLoss="21.61" rerouteNo="0" devices="tripinfo_LV.8 routing_LV.8 ssm_LV.8" vType="vehLVOS256" speedFactor="0.91" vaporized=""/>
    <tripinfo id="CVToC.14" depart="50.20" departLane="entry_1" departPos="7.52" departSpeed="32.49" departDelay="0.70" arrival="222.40" arrivalLane="e0_1" arrivalPos="4800.00" arrivalSpeed="33.82" duration="172.20" routeLength="4992.48" waitingTime="0.00" waitingCount="0" stopTime="0.00" timeLoss="24.62" rerouteNo="0" devices="tripinfo_CVToC.14 routing_CVToC.14 ssm_CVToC.14 toc_CVToC.14 driverstateCVToC.14" vType="vehLVOS966" speedFactor="0.94" vaporized=""/>
    <tripinfo id="CAVToC.23" depart="53.20" departLane="entry_1" departPos="32.47" departSpeed="32.43" departDelay="5.50" arrival="223.40" arrivalLane="e0_1" arrivalPos="4800.00" arrivalSpeed="33.60" duration="170.20" routeLength="4967.53" waitingTime="0.00" waitingCount="0" stopTime="0.00" timeLoss="22.41" rerouteNo="0" devices="tripinfo_CAVToC.23 routing_CAVToC.23 ssm_CAVToC.23 toc_CAVToC.23 driverstateCAVToC.23" vType="vehLVOS252" speedFactor="0.93" vaporized=""/>
    <tripinfo id="CAVToC.22" depart="47.60" departLane="entry_0" departPos="39.92" departSpeed="29.19" departDelay="0.90" arrival="224.20" arrivalLane="e0_0" arrivalPos="4800.00" arrivalSpeed="32.83" duration="176.60" routeLength="4960.08" waitingTime="0.00" waitingCount="0" stopTime="0.00" timeLoss="45.90" rerouteNo="0" devices="tripinfo_CAVToC.22 routing_CAVToC.22 ssm_CAVToC.22 toc_CAVToC.22 driverstateCAVToC.22" vType="vehLVOS699" speedFactor="1.05" vaporized=""/>
    <tripinfo id="CVToC.13" depart="49.40" departLane="entry_0" departPos="5.33" departSpeed="30.26" departDelay="3.30" arrival="225.50" arrivalLane="e0_0" arrivalPos="4800.00" arrivalSpeed="36.53" duration="176.10" routeLength="4994.67" waitingTime="0.00" waitingCount="0" stopTime="0.00" timeLoss="49.18" rerouteNo="0" devices="tripinfo_CVToC.13 routing_CVToC.13 ssm_CVToC.13 toc_CVToC.13 driverstateCVToC.13" vType="vehLVOS78" speedFactor="1.09" vaporized=""/>
    <tripinfo id="CVToC.16" depart="54.60" departLane="entry_1" departPos="0.87" departSpeed="32.68" departDelay="2.80" arrival="227.10" arrivalLane="e0_1" arrivalPos="4800.00" arrivalSpeed="35.28" duration="172.50" routeLength="4999.13" waitingTime="0.00" waitingCount="0" stopTime="0.00" timeLoss="30.86" rerouteNo="0" devices="tripinfo_CVToC.16 routing_CVToC.16 ssm_CVToC.16 toc_CVToC.16 driverstateCVToC.16" vType="vehLVOS265" speedFactor="0.98" vaporized=""/>
    <tripinfo id="CAVToC.24" depart="51.80" departLane="entry_0" departPos="1.97" departSpeed="30.61" departDelay="2.00" arrival="228.40" arrivalLane="e0_0" arrivalPos="4800.00" arrivalSpeed="33.60" duration="176.60" routeLength="4998.03" waitingTime="0.00" waitingCount="0" stopTime="0.00" timeLoss="27.90" rerouteNo="0" devices="tripinfo_CAVToC.24 routing_CAVToC.24 ssm_CAVToC.24 toc_CAVToC.24 driverstateCAVToC.24" vType="vehLVOS122" speedFactor="0.93" vaporized=""/>
    <tripinfo id="CAVToC.26" depart="57.40" departLane="entry_1" departPos="9.72" departSpeed="32.86" departDelay="5.70" arrival="228.60" arrivalLane="e0_1" arrivalPos="4800.00" arrivalSpeed="38.09" duration="171.20" routeLength="4990.28" waitingTime="0.00" waitingCount="0" stopTime="0.00" timeLoss="43.54" rerouteNo="0" devices="tripinfo_CAVToC.26 routing_CAVToC.26 ssm_CAVToC.26 toc_CAVToC.26 driverstateCAVToC.26" vType="vehLVOS114" speedFactor="1.08" vaporized=""/>
    <tripinfo id="CVToC.17" depart="60.10" departLane="entry_1" departPos="28.65" departSpeed="32.20" departDelay="5.10" arrival="231.60" arrivalLane="e0_1" arrivalPos="4800.00" arrivalSpeed="33.28" duration="171.50" routeLength="4971.35" waitingTime="0.00" waitingCount="0" stopTime="0.00" timeLoss="22.40" rerouteNo="0" devices="tripinfo_CVToC.17 routing_CVToC.17 ssm_CVToC.17 toc_CVToC.17 driverstateCVToC.17" vType="vehLVOS716" speedFactor="0.92" vaporized=""/>
    <tripinfo id="CAVToC.28" depart="61.40" departLane="entry_1" departPos="0.53" departSpeed="32.03" departDelay="7.30" arrival="232.70" arrivalLane="e0_1" arrivalPos="4800.00" arrivalSpeed="32.52" duration="171.30" routeLength="4999.47" waitingTime="0.00" waitingCount="0" stopTime="0.00" timeLoss="17.54" rerouteNo="0" devices="tripinfo_CAVToC.28 routing_CAVToC.28 ssm_CAVToC.28 toc_CAVToC.28 driverstateCAVToC.28" vType="vehLVOS49" speedFactor="0.90" vaporized=""/>
    <tripinfo id="CAVToC.25" depart="54.90" departLane="entry_0" departPos="13.59" departSpeed="30.27" departDelay="4.60" arrival="233.10" arrivalLane="e0_0" arrivalPos="4800.00" arrivalSpeed="33.31" duration="178.20" routeLength="4986.41" waitingTime="0.00" waitingCount="0" stopTime="0.00" timeLoss="44.43" rerouteNo="0" devices="tripinfo_CAVToC.25 routing_CAVToC.25 ssm_CAVToC.25 toc_CAVToC.25 driverstateCAVToC.25" vType="vehLVOS489" speedFactor="1.03" vaporized=""/>
    <tripinfo id="CVToC.18" depart="64.30" departLane="entry_1" departPos="1.49" departSpeed="32.04" departDelay="6.90" arrival="235.50" arrivalLane="e0_1" arrivalPos="4800.00" arrivalSpeed="39.30" duration="171.20" routeLength="4998.51" waitingTime="0.00" waitingCount="0" stopTime="0.00" timeLoss="46.96" rerouteNo="0" devices="tripinfo_CVToC.18 routing_CVToC.18 ssm_CVToC.18 toc_CVToC.18 driverstateCVToC.18" vType="vehLVOS938" speedFactor="1.11" vaporized=""/>
    <tripinfo id="CVToC.15" depart="57.50" departLane="entry_0" departPos="5.98" departSpeed="30.39" departDelay="7.90" arrival="235.60" arrivalLane="e0_0" arrivalPos="4800.00" arrivalSpeed="34.66" duration="178.10" routeLength="4994.02" waitingTime="0.00" waitingCount="0" stopTime="0.00" timeLoss="45.35" rerouteNo="0" devices="tripinfo_CVToC.15 routing_CVToC.15 ssm_CVToC.15 toc_CVToC.15 driverstateCVToC.15" vType="vehLVOS217" speedFactor="1.04" vaporized=""/>
    <tripinfo id="CAVToC.27" depart="59.80" departLane="entry_0" departPos="1.61" departSpeed="30.17" departDelay="7.10" arrival="236.50" arrivalLane="e0_0" arrivalPos="4800.00" arrivalSpeed="32.76" duration="176.70" routeLength="4998.39" waitingTime="0.00" waitingCount="0" stopTime="0.00" timeLoss="24.45" rerouteNo="0" devices="tripinfo_CAVToC.27 routing_CAVToC.27 ssm_CAVToC.27 toc_CAVToC.27 driverstateCAVToC.27" vType="vehLVOS181" speedFactor="0.91" vaporized=""/>
    <tripinfo id="LV.11" depart="66.30" departLane="entry_1" departPos="5.25" departSpeed="34.05" departDelay="2.80" arrival="236.70" arrivalLane="e0_1" arrivalPos="4800.00" arrivalSpeed="34.04" duration="170.40" routeLength="4994.75" waitingTime="0.00" waitingCount="0" stopTime="0.00" timeLoss="23.71" rerouteNo="0" devices="tripinfo_LV.11 routing_LV.11 ssm_LV.11" vType="vehLVOS311" speedFactor="0.94" vaporized=""/>
    <tripinfo id="CVToC.19" depart="62.40" departLane="entry_0" departPos="9.22" departSpeed="29.72" departDelay="2.90" arrival="237.50" arrivalLane="e0_0" arrivalPos="4800.00" arrivalSpeed="32.70" duration="175.10" routeLength="4990.78" waitingTime="0.00" waitingCount="0" stopTime="0.00" timeLoss="22.60" rerouteNo="0" devices="tripinfo_CVToC.19 routing_CVToC.19 ssm_CVToC.19 toc_CVToC.19 driverstateCVToC.19" vType="vehLVOS846" speedFactor="0.91" vaporized=""/>
    <tripinfo id="CAVToC.29" depart="68.90" departLane="entry_1" departPos="6.10" departSpeed="33.47" departDelay="5.20" arrival="238.70" arrivalLane="e0_1" arrivalPos="4800.00" arrivalSpeed="37.95" duration="169.80" routeLength="4993.90" waitingTime="0.00" waitingCount="0" stopTime="0.00" timeLoss="47.66" rerouteNo="0" devices="tripinfo_CAVToC.29 routing_CAVToC.29 ssm_CAVToC.29 toc_CAVToC.29 driverstateCAVToC.29" vType="vehLVOS440" speedFactor="1.13" vaporized=""/>
    <tripinfo id="CAVToC.30" depart="71.60" departLane="entry_1" departPos="12.06" departSpeed="32.84" departDelay="6.90" arrival="240.70" arrivalLane="e0_0" arrivalPos="4800.00" arrivalSpeed="37.23" duration="169.10" routeLength="4987.94" waitingTime="0.00" waitingCount="0" stopTime="0.00" timeLoss="35.12" rerouteNo="0" devices="tripinfo_CAVToC.30 routing_CAVToC.30 ssm_CAVToC.30 toc_CAVToC.30 driverstateCAVToC.30" vType="vehLVOS28" speedFactor="1.03" vaporized=""/>
    <tripinfo id="LV.12" depart="73.60" departLane="entry_1" departPos="9.82" departSpeed="37.03" departDelay="8.50" arrival="241.50" arrivalLane="e0_0" arrivalPos="4800.00" arrivalSpeed="36.97" duration="167.90" routeLength="4990.18" waitingTime="0.00" waitingCount="0" stopTime="0.00" timeLoss="33.08" rerouteNo="0" devices="tripinfo_LV.12 routing_LV.12 ssm_LV.12" vType="vehLVOS488" speedFactor="1.03" vaporized=""/>
    <tripinfo id="LV.9" depart="63.70" departLane="entry_0" departPos="19.29" departSpeed="28.15" departDelay="1.00" arrival="244.70" arrivalLane="e0_0" arrivalPos="4800.00" arrivalSpeed="28.10" duration="181.00" routeLength="4980.71" waitingTime="0.00" waitingCount="0" stopTime="0.00" timeLoss="4.04" rerouteNo="0" devices="tripinfo_LV.9 routing_LV.9 ssm_LV.9" vType="vehLVOS227" speedFactor="0.78" vaporized=""/>