<?xml version="1.0" encoding="UTF-8"?>

<!-- generated on 09/23/20 10:46:59 by Eclipse SUMO Version 1.6.0
<configuration xmlns:xsi="http://www.w3.org/2001/XMLSchema-instance" xsi:noNamespaceSchemaLocation="http://sumo.dlr.de/xsd/sumoConfiguration.xsd">

    <input>
        <net-file value="scenario/UC5_1.net.xml"/>
        <route-files value="scenario/routes_trafficMix_0_trafficDemand_1_driverBehaviour_OS_seed_0.xml"/>
        <additional-files value="scenario/additionalsOutput_trafficMix_0_trafficDemand_1_driverBehaviour_OS_seed_0.xml,scenario/vTypesCAVToC_OS.add.xml,scenario/vTypesCVToC_OS.add.xml,scenario/vTypesLV_OS.add.xml,scenario/shapes.add.xml,scenario/view.add.xml"/>
    </input>

    <output>
        <tripinfo-output value="C:\Users\laborknecht\Aris\workspace\ma-branch\tor-distribution/outputs/simulations/DQN__2020-09-22_18-08-57__20200923-090819/tripinfo_10.xml"/>
    </output>

    <time>
        <step-length value="0.1"/>
    </time>

    <processing>
        <step-method.ballistic value="true"/>
        <ignore-route-errors value="true"/>
        <lanechange.duration value="2.5"/>
    </processing>

    <report>
        <no-step-log value="true"/>
    </report>

    <toc_device>
        <device.toc.ogNewTimeHeadway value="100"/>
        <device.toc.ogNewSpaceHeadway value="5"/>
        <device.toc.ogMaxDecel value="1"/>
        <device.toc.ogChangeRate value="1"/>
    </toc_device>

    <traci_server>
        <remote-port value="51186"/>
    </traci_server>

    <random_number>
        <seed value="1034"/>
    </random_number>

    <gui_only>
        <tracker-interval value="0.1"/>
    </gui_only>

</configuration>
-->

<tripinfos xmlns:xsi="http://www.w3.org/2001/XMLSchema-instance" xsi:noNamespaceSchemaLocation="http://sumo.dlr.de/xsd/tripinfo_file.xsd">
    <tripinfo id="CAVToC.0" depart="0.40" departLane="entry_1" departPos="199.90" departSpeed="38.23" departDelay="0.00" arrival="126.00" arrivalLane="e0_0" arrivalPos="4800.00" arrivalSpeed="38.23" duration="125.60" routeLength="4800.10" waitingTime="0.00" waitingCount="0" stopTime="0.00" timeLoss="0.00" rerouteNo="0" devices="tripinfo_CAVToC.0 routing_CAVToC.0 ssm_CAVToC.0 toc_CAVToC.0 driverstateCAVToC.0" vType="vehLVOS19" speedFactor="1.06" vaporized=""/>
    <tripinfo id="LV.0" depart="0.30" departLane="entry_0" departPos="199.90" departSpeed="37.20" departDelay="0.00" arrival="129.40" arrivalLane="e0_0" arrivalPos="4800.00" arrivalSpeed="37.19" duration="129.10" routeLength="4800.10" waitingTime="0.00" waitingCount="0" stopTime="0.00" timeLoss="0.07" rerouteNo="0" devices="tripinfo_LV.0 routing_LV.0 ssm_LV.0" vType="vehLVOS597" speedFactor="1.03" vaporized=""/>
    <tripinfo id="CVToC.0" depart="1.60" departLane="entry_0" departPos="175.80" departSpeed="34.44" departDelay="0.00" arrival="142.20" arrivalLane="e0_0" arrivalPos="4800.00" arrivalSpeed="34.30" duration="140.60" routeLength="4824.20" waitingTime="0.00" waitingCount="0" stopTime="0.00" timeLoss="0.47" rerouteNo="0" devices="tripinfo_CVToC.0 routing_CVToC.0 ssm_CVToC.0 toc_CVToC.0 driverstateCVToC.0" vType="vehLVOS869" speedFactor="0.95" vaporized=""/>
    <tripinfo id="CAVToC.1" depart="0.70" departLane="entry_1" departPos="141.00" departSpeed="34.09" departDelay="0.00" arrival="143.40" arrivalLane="e0_1" arrivalPos="4800.00" arrivalSpeed="34.03" duration="142.70" routeLength="4859.00" waitingTime="0.00" waitingCount="0" stopTime="0.00" timeLoss="0.15" rerouteNo="0" devices="tripinfo_CAVToC.1 routing_CAVToC.1 ssm_CAVToC.1 toc_CAVToC.1 driverstateCAVToC.1" vType="vehLVOS85" speedFactor="0.94" vaporized=""/>
    <tripinfo id="LV.1" depart="2.50" departLane="entry_0" departPos="86.22" departSpeed="42.96" departDelay="0.00" arrival="144.60" arrivalLane="e0_1" arrivalPos="4800.00" arrivalSpeed="37.09" duration="142.10" routeLength="4913.78" waitingTime="0.00" waitingCount="0" stopTime="0.00" timeLoss="27.66" rerouteNo="0" devices="tripinfo_LV.1 routing_LV.1 ssm_LV.1" vType="vehLVOS538" speedFactor="1.19" vaporized=""/>
    <tripinfo id="CVToC.1" depart="5.10" departLane="entry_1" departPos="5.60" departSpeed="35.42" departDelay="1.00" arrival="146.20" arrivalLane="e0_1" arrivalPos="4800.00" arrivalSpeed="43.63" duration="141.10" routeLength="4994.40" waitingTime="0.00" waitingCount="0" stopTime="0.00" timeLoss="31.04" rerouteNo="0" devices="tripinfo_CVToC.1 routing_CVToC.1 ssm_CVToC.1 toc_CVToC.1 driverstateCVToC.1" vType="vehLVOS77" speedFactor="1.26" vaporized=""/>
    <tripinfo id="LV.2" depart="2.60" departLane="entry_0" departPos="12.74" departSpeed="38.13" departDelay="0.00" arrival="146.80" arrivalLane="e0_0" arrivalPos="4800.00" arrivalSpeed="38.11" duration="144.20" routeLength="4987.26" waitingTime="0.00" waitingCount="0" stopTime="0.00" timeLoss="13.39" rerouteNo="0" devices="tripinfo_LV.2 routing_LV.2 ssm_LV.2" vType="vehLVOS68" speedFactor="1.06" vaporized=""/>
    <tripinfo id="CVToC.2" depart="7.40" departLane="entry_1" departPos="1.61" departSpeed="34.25" departDelay="0.80" arrival="148.30" arrivalLane="e0_1" arrivalPos="4800.00" arrivalSpeed="37.69" duration="140.90" routeLength="4998.39" waitingTime="0.00" waitingCount="0" stopTime="0.00" timeLoss="8.55" rerouteNo="0" devices="tripinfo_CVToC.2 routing_CVToC.2 ssm_CVToC.2 toc_CVToC.2 driverstateCVToC.2" vType="vehLVOS697" speedFactor="1.05" vaporized=""/>
    <tripinfo id="CAVToC.2" depart="2.20" departLane="entry_1" departPos="120.38" departSpeed="33.71" departDelay="0.00" arrival="148.90" arrivalLane="e0_0" arrivalPos="4800.00" arrivalSpeed="33.69" duration="146.70" routeLength="4879.62" waitingTime="0.00" waitingCount="0" stopTime="0.00" timeLoss="1.90" rerouteNo="0" devices="tripinfo_CAVToC.2 routing_CAVToC.2 ssm_CAVToC.2 toc_CAVToC.2 driverstateCAVToC.2" vType="vehLVOS9" speedFactor="0.93" vaporized=""/>
    <tripinfo id="LV.3" depart="4.20" departLane="entry_0" departPos="22.95" departSpeed="37.17" departDelay="0.30" arrival="149.80" arrivalLane="e0_1" arrivalPos="4800.00" arrivalSpeed="37.17" duration="145.60" routeLength="4977.05" waitingTime="0.00" waitingCount="0" stopTime="0.00" timeLoss="11.62" rerouteNo="0" devices="tripinfo_LV.3 routing_LV.3 ssm_LV.3" vType="vehLVOS180" speedFactor="1.03" vaporized=""/>
    <tripinfo id="CAVToC.3" depart="6.00" departLane="entry_0" departPos="1.87" departSpeed="35.69" departDelay="0.30" arrival="154.00" arrivalLane="e0_0" arrivalPos="4800.00" arrivalSpeed="39.14" duration="148.00" routeLength="4998.13" waitingTime="0.00" waitingCount="0" stopTime="0.00" timeLoss="20.24" rerouteNo="0" devices="tripinfo_CAVToC.3 routing_CAVToC.3 ssm_CAVToC.3 toc_CAVToC.3 driverstateCAVToC.3" vType="vehLVOS277" speedFactor="1.08" vaporized=""/>
    <tripinfo id="CAVToC.4" depart="8.30" departLane="entry_0" departPos="4.02" departSpeed="33.58" departDelay="0.10" arrival="154.30" arrivalLane="e0_1" arrivalPos="4800.00" arrivalSpeed="35.82" duration="146.00" routeLength="4995.98" waitingTime="0.00" waitingCount="0" stopTime="0.00" timeLoss="6.76" rerouteNo="0" devices="tripinfo_CAVToC.4 routing_CAVToC.4 ssm_CAVToC.4 toc_CAVToC.4 driverstateCAVToC.4" vType="vehLVOS139" speedFactor="0.99" vaporized=""/>
    <tripinfo id="CAVToC.6" depart="11.90" departLane="entry_1" departPos="0.56" departSpeed="33.36" departDelay="3.20" arrival="159.70" arrivalLane="e0_0" arrivalPos="4800.00" arrivalSpeed="38.84" duration="147.80" routeLength="4999.44" waitingTime="0.00" waitingCount="0" stopTime="0.00" timeLoss="19.11" rerouteNo="0" devices="tripinfo_CAVToC.6 routing_CAVToC.6 ssm_CAVToC.6 toc_CAVToC.6 driverstateCAVToC.6" vType="vehLVOS168" speedFactor="1.08" vaporized=""/>
    <tripinfo id="CVToC.7" depart="16.50" departLane="entry_1" departPos="4.35" departSpeed="30.63" departDelay="0.90" arrival="164.10" arrivalLane="e0_1" arrivalPos="4800.00" arrivalSpeed="37.00" duration="147.60" routeLength="4995.65" waitingTime="0.00" waitingCount="0" stopTime="0.00" timeLoss="12.55" rerouteNo="0" devices="tripinfo_CVToC.7 routing_CVToC.7 ssm_CVToC.7 toc_CVToC.7 driverstateCVToC.7" vType="vehLVOS138" speedFactor="1.02" vaporized=""/>
    <tripinfo id="CAVToC.5" depart="9.60" departLane="entry_1" departPos="7.53" departSpeed="32.64" departDelay="1.20" arrival="165.90" arrivalLane="e0_0" arrivalPos="4800.00" arrivalSpeed="32.61" duration="156.30" routeLength="4992.47" waitingTime="0.00" waitingCount="0" stopTime="0.00" timeLoss="3.27" rerouteNo="0" devices="tripinfo_CAVToC.5 routing_CAVToC.5 ssm_CAVToC.5 toc_CAVToC.5 driverstateCAVToC.5" vType="vehLVOS491" speedFactor="0.90" vaporized=""/>
    <tripinfo id="CVToC.4" depart="10.70" departLane="entry_0" departPos="7.67" departSpeed="33.32" departDelay="1.40" arrival="166.90" arrivalLane="e0_0" arrivalPos="4800.00" arrivalSpeed="34.11" duration="156.20" routeLength="4992.33" waitingTime="0.00" waitingCount="0" stopTime="0.00" timeLoss="13.58" rerouteNo="0" devices="tripinfo_CVToC.4 routing_CVToC.4 ssm_CVToC.4 toc_CVToC.4 driverstateCVToC.4" vType="vehLVOS20" speedFactor="0.97" vaporized=""/>
    <tripinfo id="CVToC.8" depart="19.00" departLane="entry_1" departPos="4.70" departSpeed="30.96" departDelay="2.20" arrival="172.10" arrivalLane="e0_0" arrivalPos="4800.00" arrivalSpeed="34.06" duration="153.10" routeLength="4995.30" waitingTime="0.00" waitingCount="0" stopTime="0.00" timeLoss="6.57" rerouteNo="0" devices="tripinfo_CVToC.8 routing_CVToC.8 ssm_CVToC.8 toc_CVToC.8 driverstateCVToC.8" vType="vehLVOS986" speedFactor="0.94" vaporized=""/>
    <tripinfo id="CAVToC.7" depart="17.90" departLane="entry_0" departPos="8.73" departSpeed="30.61" departDelay="2.60" arrival="174.10" arrivalLane="e0_1" arrivalPos="4800.00" arrivalSpeed="36.63" duration="156.20" routeLength="4991.27" waitingTime="0.00" waitingCount="0" stopTime="0.00" timeLoss="19.90" rerouteNo="0" devices="tripinfo_CAVToC.7 routing_CAVToC.7 ssm_CAVToC.7 toc_CAVToC.7 driverstateCAVToC.7" vType="vehLVOS224" speedFactor="1.01" vaporized=""/>
    <tripinfo id="CAVToC.8" depart="26.20" departLane="entry_1" departPos="0.56" departSpeed="33.40" departDelay="9.30" arrival="175.70" arrivalLane="e0_1" arrivalPos="4800.00" arrivalSpeed="40.48" duration="149.50" routeLength="4999.44" waitingTime="0.00" waitingCount="0" stopTime="0.00" timeLoss="32.97" rerouteNo="0" devices="tripinfo_CAVToC.8 routing_CAVToC.8 ssm_CAVToC.8 toc_CAVToC.8 driverstateCAVToC.8" vType="vehLVOS768" speedFactor="1.19" vaporized=""/>
    <tripinfo id="LV.4" depart="23.50" departLane="entry_1" departPos="2.43" departSpeed="33.74" departDelay="13.40" arrival="175.80" arrivalLane="e0_0" arrivalPos="4800.00" arrivalSpeed="33.73" duration="152.30" routeLength="4997.57" waitingTime="0.00" waitingCount="0" stopTime="0.00" timeLoss="4.11" rerouteNo="0" devices="tripinfo_LV.4 routing_LV.4 ssm_LV.4" vType="vehLVOS826" speedFactor="0.93" vaporized=""/>
    <tripinfo id="LV.5" depart="25.20" departLane="entry_0" departPos="3.30" departSpeed="40.06" departDelay="11.00" arrival="177.20" arrivalLane="e0_1" arrivalPos="4800.00" arrivalSpeed="40.00" duration="152.00" routeLength="4996.70" waitingTime="0.00" waitingCount="0" stopTime="0.00" timeLoss="27.23" rerouteNo="0" devices="tripinfo_LV.5 routing_LV.5 ssm_LV.5" vType="vehLVOS198" speedFactor="1.11" vaporized=""/>
    <tripinfo id="LV.7" depart="28.10" departLane="entry_0" departPos="13.61" departSpeed="40.43" departDelay="1.70" arrival="178.00" arrivalLane="e0_1" arrivalPos="4800.00" arrivalSpeed="40.37" duration="149.90" routeLength="4986.39" waitingTime="0.00" waitingCount="0" stopTime="0.00" timeLoss="26.55" rerouteNo="0" devices="tripinfo_LV.7 routing_LV.7 ssm_LV.7" vType="vehLVOS383" speedFactor="1.12" vaporized=""/>
    <tripinfo id="CVToC.6" depart="13.80" departLane="entry_1" departPos="3.27" departSpeed="29.80" departDelay="1.50" arrival="182.30" arrivalLane="e0_0" arrivalPos="4800.00" arrivalSpeed="29.79" duration="168.50" routeLength="4996.73" waitingTime="0.00" waitingCount="0" stopTime="0.00" timeLoss="0.78" rerouteNo="0" devices="tripinfo_CVToC.6 routing_CVToC.6 ssm_CVToC.6 toc_CVToC.6 driverstateCVToC.6" vType="vehLVOS853" speedFactor="0.83" vaporized=""/>
    <tripinfo id="CAVToC.10" depart="28.70" departLane="entry_1" departPos="6.15" departSpeed="33.70" departDelay="1.90" arrival="182.60" arrivalLane="e0_1" arrivalPos="4800.00" arrivalSpeed="35.20" duration="153.90" routeLength="4993.85" waitingTime="0.00" waitingCount="0" stopTime="0.00" timeLoss="11.97" rerouteNo="0" devices="tripinfo_CAVToC.10 routing_CAVToC.10 ssm_CAVToC.10 toc_CAVToC.10 driverstateCAVToC.10" vType="vehLVOS914" speedFactor="0.98" vaporized=""/>
    <tripinfo id="CVToC.3" depart="13.20" departLane="entry_0" departPos="8.58" departSpeed="33.24" departDelay="4.70" arrival="183.40" arrivalLane="e0_0" arrivalPos="4800.00" arrivalSpeed="32.37" duration="170.20" routeLength="4991.42" waitingTime="0.00" waitingCount="0" stopTime="0.00" timeLoss="37.46" rerouteNo="0" devices="tripinfo_CVToC.3 routing_CVToC.3 ssm_CVToC.3 toc_CVToC.3 driverstateCVToC.3" vType="vehLVOS19" speedFactor="1.04" vaporized=""/>
    <tripinfo id="CAVToC.11" depart="30.80" departLane="entry_1" departPos="0.98" departSpeed="33.91" departDelay="2.80" arrival="184.00" arrivalLane="e0_1" arrivalPos="4800.00" arrivalSpeed="35.16" duration="153.20" routeLength="4999.02" waitingTime="0.00" waitingCount="0" stopTime="0.00" timeLoss="11.10" rerouteNo="0" devices="tripinfo_CAVToC.11 routing_CAVToC.11 ssm_CAVToC.11 toc_CAVToC.11 driverstateCAVToC.11" vType="vehLVOS892" speedFactor="0.97" vaporized=""/>
    <tripinfo id="CVToC.5" depart="15.50" departLane="entry_0" departPos="16.32" departSpeed="33.29" departDelay="4.80" arrival="184.40" arrivalLane="e0_0" arrivalPos="4800.00" arrivalSpeed="31.20" duration="168.90" routeLength="4983.68" waitingTime="0.00" waitingCount="0" stopTime="0.00" timeLoss="20.84" rerouteNo="0" devices="tripinfo_CVToC.5 routing_CVToC.5 ssm_CVToC.5 toc_CVToC.5 driverstateCVToC.5" vType="vehLVOS863" speedFactor="0.93" vaporized=""/>
    <tripinfo id="CAVToC.13" depart="33.30" departLane="entry_1" departPos="1.83" departSpeed="34.35" departDelay="1.70" arrival="186.00" arrivalLane="e0_1" arrivalPos="4800.00" arrivalSpeed="39.93" duration="152.70" routeLength="4998.17" waitingTime="0.00" waitingCount="0" stopTime="0.00" timeLoss="29.07" rerouteNo="0" devices="tripinfo_CAVToC.13 routing_CAVToC.13 ssm_CAVToC.13 toc_CAVToC.13 driverstateCAVToC.13" vType="vehLVOS292" speedFactor="1.12" vaporized=""/>
    <tripinfo id="CAVToC.9" depart="20.70" departLane="entry_0" departPos="7.63" departSpeed="31.49" departDelay="0.60" arrival="186.60" arrivalLane="e0_0" arrivalPos="4800.00" arrivalSpeed="32.80" duration="165.90" routeLength="4992.37" waitingTime="0.00" waitingCount="0" stopTime="0.00" timeLoss="40.48" rerouteNo="0" devices="tripinfo_CAVToC.9 routing_CAVToC.9 ssm_CAVToC.9 toc_CAVToC.9 driverstateCAVToC.9" vType="vehLVOS610" speedFactor="1.10" vaporized=""/>
    <tripinfo id="CVToC.13" depart="36.10" departLane="entry_1" departPos="17.58" departSpeed="34.42" departDelay="2.00" arrival="186.80" arrivalLane="e0_1" arrivalPos="4800.00" arrivalSpeed="37.89" duration="150.70" routeLength="4982.42" waitingTime="0.00" waitingCount="0" stopTime="0.00" timeLoss="19.44" rerouteNo="0" devices="tripinfo_CVToC.13 routing_CVToC.13 ssm_CVToC.13 toc_CVToC.13 driverstateCVToC.13" vType="vehLVOS666" speedFactor="1.05" vaporized=""/>
    <tripinfo id="CVToC.9" depart="29.90" departLane="entry_0" departPos="1.86" departSpeed="36.01" departDelay="2.80" arrival="187.70" arrivalLane="e0_0" arrivalPos="4800.00" arrivalSpeed="33.21" duration="157.80" routeLength="4998.14" waitingTime="0.00" waitingCount="0" stopTime="0.00" timeLoss="18.93" rerouteNo="0" devices="tripinfo_CVToC.9 routing_CVToC.9 ssm_CVToC.9 toc_CVToC.9 driverstateCVToC.9" vType="vehLVOS477" speedFactor="1.00" vaporized=""/>
    <tripinfo id="CAVToC.12" depart="32.00" departLane="entry_0" departPos="2.93" departSpeed="33.68" departDelay="2.40" arrival="189.00" arrivalLane="e0_0" arrivalPos="4800.00" arrivalSpeed="34.23" duration="157.00" routeLength="4997.07" waitingTime="0.00" waitingCount="0" stopTime="0.00" timeLoss="11.52" rerouteNo="0" devices="tripinfo_CAVToC.12 routing_CAVToC.12 ssm_CAVToC.12 toc_CAVToC.12 driverstateCAVToC.12" vType="vehLVOS374" speedFactor="0.95" vaporized=""/>
    <tripinfo id="CVToC.11" depart="34.30" departLane="entry_0" departPos="3.18" departSpeed="33.83" departDelay="2.20" arrival="189.10" arrivalLane="e0_1" arrivalPos="4800.00" arrivalSpeed="37.31" duration="154.80" routeLength="4996.82" waitingTime="0.00" waitingCount="0" stopTime="0.00" timeLoss="20.86" rerouteNo="0" devices="tripinfo_CVToC.11 routing_CVToC.11 ssm_CVToC.11 toc_CVToC.11 driverstateCVToC.11" vType="vehLVOS842" speedFactor="1.03" vaporized=""/>
    <tripinfo id="LV.6" depart="39.20" departLane="entry_0" departPos="2.75" departSpeed="37.17" departDelay="23.50" arrival="195.10" arrivalLane="e0_1" arrivalPos="4800.00" arrivalSpeed="37.16" duration="155.90" routeLength="4997.25" waitingTime="0.00" waitingCount="0" stopTime="0.00" timeLoss="21.41" rerouteNo="0" devices="tripinfo_LV.6 routing_LV.6 ssm_LV.6" vType="vehLVOS298" speedFactor="1.03" vaporized=""/>
    <tripinfo id="CVToC.14" depart="42.70" departLane="entry_1" departPos="9.15" departSpeed="31.34" departDelay="6.80" arrival="197.20" arrivalLane="e0_1" arrivalPos="4800.00" arrivalSpeed="36.53" duration="154.50" routeLength="4990.85" waitingTime="0.00" waitingCount="0" stopTime="0.00" timeLoss="17.90" rerouteNo="0" devices="tripinfo_CVToC.14 routing_CVToC.14 ssm_CVToC.14 toc_CVToC.14 driverstateCVToC.14" vType="vehLVOS95" speedFactor="1.01" vaporized=""/>
    <tripinfo id="CAVToC.16" depart="39.90" departLane="entry_1" departPos="3.72" departSpeed="30.75" departDelay="1.80" arrival="197.80" arrivalLane="e0_0" arrivalPos="4800.00" arrivalSpeed="33.50" duration="157.90" routeLength="4996.28" waitingTime="0.00" waitingCount="0" stopTime="0.00" timeLoss="8.67" rerouteNo="0" devices="tripinfo_CAVToC.16 routing_CAVToC.16 ssm_CAVToC.16 toc_CAVToC.16 driverstateCAVToC.16" vType="vehLVOS961" speedFactor="0.93" vaporized=""/>
    <tripinfo id="CAVToC.14" depart="45.10" departLane="entry_1" departPos="1.55" departSpeed="31.97" departDelay="12.00" arrival="198.30" arrivalLane="e0_1" arrivalPos="4800.00" arrivalSpeed="37.68" duration="153.20" routeLength="4998.45" waitingTime="0.00" waitingCount="0" stopTime="0.00" timeLoss="20.96" rerouteNo="0" devices="tripinfo_CAVToC.14 routing_CAVToC.14 ssm_CAVToC.14 toc_CAVToC.14 driverstateCAVToC.14" vType="vehLVOS271" speedFactor="1.05" vaporized=""/>
    <tripinfo id="LV.10" depart="43.80" departLane="entry_0" departPos="11.65" departSpeed="33.70" departDelay="6.40" arrival="203.20" arrivalLane="e0_1" arrivalPos="4800.00" arrivalSpeed="33.64" duration="159.40" routeLength="4988.35" waitingTime="0.00" waitingCount="0" stopTime="0.00" timeLoss="11.32" rerouteNo="0" devices="tripinfo_LV.10 routing_LV.10 ssm_LV.10" vType="vehLVOS523" speedFactor="0.93" vaporized=""/>
    <tripinfo id="CAVToC.15" depart="37.50" departLane="entry_1" departPos="3.32" departSpeed="30.33" departDelay="2.70" arrival="203.40" arrivalLane="e0_0" arrivalPos="4800.00" arrivalSpeed="30.32" duration="165.90" routeLength="4996.68" waitingTime="0.00" waitingCount="0" stopTime="0.00" timeLoss="1.11" rerouteNo="0" devices="tripinfo_CAVToC.15 routing_CAVToC.15 ssm_CAVToC.15 toc_CAVToC.15 driverstateCAVToC.15" vType="vehLVOS235" speedFactor="0.84" vaporized=""/>
    <tripinfo id="CAVToC.18" depart="47.80" departLane="entry_1" departPos="7.60" departSpeed="32.36" departDelay="2.60" arrival="204.20" arrivalLane="e0_1" arrivalPos="4800.00" arrivalSpeed="35.18" duration="156.40" routeLength="4992.40" waitingTime="0.00" waitingCount="0" stopTime="0.00" timeLoss="20.32" rerouteNo="0" devices="tripinfo_CAVToC.18 routing_CAVToC.18 ssm_CAVToC.18 toc_CAVToC.18 driverstateCAVToC.18" vType="vehLVOS793" speedFactor="1.02" vaporized=""/>
    <tripinfo id="CVToC.10" depart="37.60" departLane="entry_0" departPos="29.82" departSpeed="33.99" departDelay="6.80" arrival="205.20" arrivalLane="e0_0" arrivalPos="4800.00" arrivalSpeed="34.46" duration="167.60" routeLength="4970.18" waitingTime="0.00" waitingCount="0" stopTime="0.00" timeLoss="38.53" rerouteNo="0" devices="tripinfo_CVToC.10 routing_CVToC.10 ssm_CVToC.10 toc_CVToC.10 driverstateCVToC.10" vType="vehLVOS51" speedFactor="1.07" vaporized=""/>
    <tripinfo id="CVToC.12" depart="41.40" departLane="entry_0" departPos="5.65" departSpeed="31.99" departDelay="8.90" arrival="206.80" arrivalLane="e0_0" arrivalPos="4800.00" arrivalSpeed="35.10" duration="165.40" routeLength="4994.35" waitingTime="0.00" waitingCount="0" stopTime="0.00" timeLoss="23.11" rerouteNo="0" devices="tripinfo_CVToC.12 routing_CVToC.12 ssm_CVToC.12 toc_CVToC.12 driverstateCVToC.12" vType="vehLVOS461" speedFactor="0.97" vaporized=""/>
    <tripinfo id="LV.11" depart="45.40" departLane="entry_0" departPos="19.37" departSpeed="32.80" departDelay="0.80" arrival="208.00" arrivalLane="e0_0" arrivalPos="4800.00" arrivalSpeed="32.78" duration="162.60" routeLength="4980.63" waitingTime="0.00" waitingCount="0" stopTime="0.00" timeLoss="10.68" rerouteNo="0" devices="tripinfo_LV.11 routing_LV.11 ssm_LV.11" vType="vehLVOS731" speedFactor="0.91" vaporized=""/>
    <tripinfo id="CAVToC.17" depart="47.10" departLane="entry_0" departPos="2.88" departSpeed="32.67" departDelay="8.90" arrival="208.80" arrivalLane="e0_0" arrivalPos="4800.00" arrivalSpeed="33.41" duration="161.70" routeLength="4997.12" waitingTime="0.00" waitingCount="0" stopTime="0.00" timeLoss="16.80" rerouteNo="0" devices="tripinfo_CAVToC.17 routing_CAVToC.17 ssm_CAVToC.17 toc_CAVToC.17 driverstateCAVToC.17" vType="vehLVOS13" speedFactor="0.96" vaporized=""/>
    <tripinfo id="CVToC.15" depart="50.30" departLane="entry_1" departPos="14.27" departSpeed="32.19" departDelay="5.70" arrival="210.40" arrivalLane="e0_1" arrivalPos="4800.00" arrivalSpeed="33.28" duration="160.10" routeLength="4985.73" waitingTime="0.00" waitingCount="0" stopTime="0.00" timeLoss="10.39" rerouteNo="0" devices="tripinfo_CVToC.15 routing_CVToC.15 ssm_CVToC.15 toc_CVToC.15 driverstateCVToC.15" vType="vehLVOS719" speedFactor="0.92" vaporized=""/>
    <tripinfo id="LV.12" depart="53.10" departLane="entry_1" departPos="1.28" departSpeed="33.74" departDelay="3.70" arrival="212.70" arrivalLane="e0_1" arrivalPos="4800.00" arrivalSpeed="33.74" duration="159.60" routeLength="4998.72" waitingTime="0.00" waitingCount="0" stopTime="0.00" timeLoss="11.39" rerouteNo="0" devices="tripinfo_LV.12 routing_LV.12 ssm_LV.12" vType="vehLVOS592" speedFactor="0.93" vaporized=""/>
    <tripinfo id="CVToC.16" depart="50.70" departLane="entry_0" departPos="30.28" departSpeed="32.04" departDelay="5.10" arrival="214.40" arrivalLane="e0_1" arrivalPos="4800.00" arrivalSpeed="37.18" duration="163.70" routeLength="4969.72" waitingTime="0.00" waitingCount="0" stopTime="0.00" timeLoss="39.03" rerouteNo="0" devices="tripinfo_CVToC.16 routing_CVToC.16 ssm_CVToC.16 toc_CVToC.16 driverstateCVToC.16" vType="vehLVOS240" speedFactor="1.10" vaporized=""/>
    <tripinfo id="LV.13" depart="55.80" departLane="entry_1" departPos="55.04" departSpeed="32.36" departDelay="1.00" arrival="216.20" arrivalLane="e0_0" arrivalPos="4800.00" arrivalSpeed="32.36" duration="160.40" routeLength="4944.96" waitingTime="0.00" waitingCount="0" stopTime="0.00" timeLoss="7.53" rerouteNo="0" devices="tripinfo_LV.13 routing_LV.13 ssm_LV.13" vType="vehLVOS73" speedFactor="0.90" vaporized=""/>
    <tripinfo id="CVToC.20" depart="56.80" departLane="entry_1" departPos="7.86" departSpeed="32.68" departDelay="0.00" arrival="216.80" arrivalLane="e0_1" arrivalPos="4800.00" arrivalSpeed="36.42" duration="160.00" routeLength="4992.14" waitingTime="0.00" waitingCount="0" stopTime="0.00" timeLoss="22.99" rerouteNo="0" devices="tripinfo_CVToC.20 routing_CVToC.20 ssm_CVToC.20 toc_CVToC.20 driverstateCVToC.20" vType="vehLVOS975" speedFactor="1.01" vaporized=""/>
    <tripinfo id="CVToC.17" depart="52.60" departLane="entry_0" departPos="9.50" departSpeed="32.29" departDelay="6.70" arrival="217.70" arrivalLane="e0_0" arrivalPos="4800.00" arrivalSpeed="35.75" duration="165.10" routeLength="4990.50" waitingTime="0.00" waitingCount="0" stopTime="0.00" timeLoss="30.94" rerouteNo="0" devices="tripinfo_CVToC.17 routing_CVToC.17 ssm_CVToC.17 toc_CVToC.17 driverstateCVToC.17" vType="vehLVOS168" speedFactor="1.03" vaporized=""/>
    <tripinfo id="CAVToC.19" depart="59.80" departLane="entry_1" departPos="19.50" departSpeed="33.15" departDelay="2.70" arrival="217.70" arrivalLane="e0_1" arrivalPos="4800.00" arrivalSpeed="37.53" duration="157.90" routeLength="4980.50" waitingTime="0.00" waitingCount="0" stopTime="0.00" timeLoss="29.09" rerouteNo="0" devices="tripinfo_CAVToC.19 routing_CAVToC.19 ssm_CAVToC.19 toc_CAVToC.19 driverstateCAVToC.19" vType="vehLVOS999" speedFactor="1.07" vaporized=""/>
    <tripinfo id="CVToC.18" depart="55.20" departLane="entry_0" departPos="12.56" departSpeed="32.52" departDelay="2.00" arrival="219.20" arrivalLane="e0_0" arrivalPos="4800.00" arrivalSpeed="36.71" duration="164.00" routeLength="4987.44" waitingTime="0.00" waitingCount="0" stopTime="0.00" timeLoss="34.49" rerouteNo="0" devices="tripinfo_CVToC.18 routing_CVToC.18 ssm_CVToC.18 toc_CVToC.18 driverstateCVToC.18" vType="vehLVOS102" speedFactor="1.07" vaporized=""/>
    <tripinfo id="LV.9" depart="65.20" departLane="entry_1" departPos="4.58" departSpeed="37.38" departDelay="27.90" arrival="219.60" arrivalLane="e0_1" arrivalPos="4800.00" arrivalSpeed="37.38" duration="154.40" routeLength="4995.42" waitingTime="0.00" waitingCount="0" stopTime="0.00" timeLoss="20.70" rerouteNo="0" devices="tripinfo_LV.9 routing_LV.9 ssm_LV.9" vType="vehLVOS736" speedFactor="1.04" vaporized=""/>
    <tripinfo id="CAVToC.21" depart="67.20" departLane="entry_1" departPos="3.36" departSpeed="36.35" departDelay="5.90" arrival="221.90" arrivalLane="e0_1" arrivalPos="4800.00" arrivalSpeed="37.42" duration="154.70" routeLength="4996.64" waitingTime="0.00" waitingCount="0" stopTime="0.00" timeLoss="21.30" rerouteNo="0" devices="tripinfo_CAVToC.21 routing_CAVToC.21 ssm_CAVToC.21 toc_CAVToC.21 driverstateCAVToC.21" vType="vehLVOS288" speedFactor="1.04" vaporized=""/>
    <tripinfo id="CAVToC.22" depart="69.50" departLane="entry_1" departPos="9.18" departSpeed="36.34" departDelay="7.60" arrival="222.90" arrivalLane="e0_1" arrivalPos="4800.00" arrivalSpeed="37.71" duration="153.40" routeLength="4990.82" waitingTime="0.00" waitingCount="0" stopTime="0.00" timeLoss="21.04" rerouteNo="0" devices="tripinfo_CAVToC.22 routing_CAVToC.22 ssm_CAVToC.22 toc_CAVToC.22 driverstateCAVToC.22" vType="vehLVOS208" speedFactor="1.04" vaporized=""/>
    <tripinfo id="CVToC.26" depart="72.00" departLane="entry_1" departPos="22.08" departSpeed="35.76" departDelay="6.50" arrival="224.30" arrivalLane="e0_1" arrivalPos="4800.00" arrivalSpeed="35.75" duration="152.30" routeLength="4977.92" waitingTime="0.00" waitingCount="0" stopTime="0.00" timeLoss="13.01" rerouteNo="0" devices="tripinfo_CVToC.26 routing_CVToC.26 ssm_CVToC.26 toc_CVToC.26 driverstateCVToC.26" vType="vehLVOS329" speedFactor="0.99" vaporized=""/>
    <tripinfo id="LV.14" depart="58.70" departLane="entry_0" departPos="29.20" departSpeed="30.21" departDelay="3.50" arrival="225.80" arrivalLane="e0_0" arrivalPos="4800.00" arrivalSpeed="30.20" duration="167.10" routeLength="4970.80" waitingTime="0.00" waitingCount="0" stopTime="0.00" timeLoss="2.48" rerouteNo="0" devices="tripinfo_LV.14 routing_LV.14 ssm_LV.14" vType="vehLVOS392" speedFactor="0.84" vaporized=""/>
    <tripinfo id="CVToC.21" depart="57.70" departLane="entry_0" departPos="13.18" departSpeed="32.76" departDelay="0.80" arrival="226.70" arrivalLane="e0_0" arrivalPos="4800.00" arrivalSpeed="31.27" duration="169.00" routeLength="4986.82" waitingTime="0.00" waitingCount="0" stopTime="0.00" timeLoss="37.02" rerouteNo="0" devices="tripinfo_CVToC.21 routing_CVToC.21 ssm_CVToC.21 toc_CVToC.21 driverstateCVToC.21" vType="vehLVOS510" speedFactor="1.05" vaporized=""/>
    <tripinfo id="CVToC.22" depart="61.00" departLane="entry_0" departPos="2.44" departSpeed="30.48" departDelay="3.20" arrival="227.30" arrivalLane="e0_1" arrivalPos="4800.00" arrivalSpeed="39.46" duration="166.30" routeLength="4997.56" waitingTime="0.00" waitingCount="0" stopTime="0.00" timeLoss="50.91" rerouteNo="0" devices="tripinfo_CVToC.22 routing_CVToC.22 ssm_CVToC.22 toc_CVToC.22 driverstateCVToC.22" vType="vehLVOS359" speedFactor="1.20" vaporized=""/>
    <tripinfo id="CAVToC.20" depart="61.70" departLane="entry_1" departPos="14.65" departSpeed="32.24" departDelay="0.90" arrival="228.80" arrivalLane="e0_0" arrivalPos="4800.00" arrivalSpeed="32.20" duration="167.10" routeLength="4985.35" waitingTime="0.00" waitingCount="0" stopTime="0.00" timeLoss="12.41" rerouteNo="0" devices="tripinfo_CAVToC.20 routing_CAVToC.20 ssm_CAVToC.20 toc_CAVToC.20 driverstateCAVToC.20" vType="vehLVOS477" speedFactor="0.89" vaporized=""/>
    <tripinfo id="CVToC.19" depart="64.40" departLane="entry_0" departPos="12.87" departSpeed="31.20" departDelay="10.20" arrival="229.90" arrivalLane="e0_1" arrivalPos="4800.00" arrivalSpeed="42.48" duration="165.50" routeLength="4987.13" waitingTime="0.00" waitingCount="0" stopTime="0.00" timeLoss="50.80" rerouteNo="0" devices="tripinfo_CVToC.19 routing_CVToC.19 ssm_CVToC.19 toc_CVToC.19 driverstateCVToC.19" vType="vehLVOS226" speedFactor="1.20" vaporized=""/>