<?xml version="1.0" encoding="UTF-8"?>

<!-- generated on 09/23/20 10:24:52 by Eclipse SUMO Version 1.6.0
<configuration xmlns:xsi="http://www.w3.org/2001/XMLSchema-instance" xsi:noNamespaceSchemaLocation="http://sumo.dlr.de/xsd/sumoConfiguration.xsd">

    <input>
        <net-file value="scenario/UC5_1.net.xml"/>
        <route-files value="scenario/routes_trafficMix_0_trafficDemand_1_driverBehaviour_OS_seed_0.xml"/>
        <additional-files value="scenario/additionalsOutput_trafficMix_0_trafficDemand_1_driverBehaviour_OS_seed_0.xml,scenario/vTypesCAVToC_OS.add.xml,scenario/vTypesCVToC_OS.add.xml,scenario/vTypesLV_OS.add.xml,scenario/shapes.add.xml,scenario/view.add.xml"/>
    </input>

    <output>
        <tripinfo-output value="C:\Users\laborknecht\Aris\workspace\ma-branch\tor-distribution/outputs/simulations/DQN__2020-09-22_18-08-57__20200923-090819/tripinfo_8.xml"/>
    </output>

    <time>
        <step-length value="0.1"/>
    </time>

    <processing>
        <step-method.ballistic value="true"/>
        <ignore-route-errors value="true"/>
        <lanechange.duration value="2.5"/>
    </processing>

    <report>
        <no-step-log value="true"/>
    </report>

    <toc_device>
        <device.toc.ogNewTimeHeadway value="100"/>
        <device.toc.ogNewSpaceHeadway value="5"/>
        <device.toc.ogMaxDecel value="1"/>
        <device.toc.ogChangeRate value="1"/>
    </toc_device>

    <traci_server>
        <remote-port value="51036"/>
    </traci_server>

    <random_number>
        <seed value="1032"/>
    </random_number>

    <gui_only>
        <tracker-interval value="0.1"/>
    </gui_only>

</configuration>
-->

<tripinfos xmlns:xsi="http://www.w3.org/2001/XMLSchema-instance" xsi:noNamespaceSchemaLocation="http://sumo.dlr.de/xsd/tripinfo_file.xsd">
    <tripinfo id="LV.0" depart="2.40" departLane="entry_1" departPos="126.61" departSpeed="41.64" departDelay="0.00" arrival="120.80" arrivalLane="e0_0" arrivalPos="4800.00" arrivalSpeed="41.64" duration="118.40" routeLength="4873.39" waitingTime="0.00" waitingCount="0" stopTime="0.00" timeLoss="1.36" rerouteNo="0" devices="tripinfo_LV.0 routing_LV.0 ssm_LV.0" vType="vehLVOS594" speedFactor="1.15" vaporized=""/>
    <tripinfo id="CAVToC.1" depart="1.90" departLane="entry_1" departPos="199.90" departSpeed="39.24" departDelay="0.00" arrival="124.50" arrivalLane="e0_1" arrivalPos="4800.00" arrivalSpeed="39.22" duration="122.60" routeLength="4800.10" waitingTime="0.00" waitingCount="0" stopTime="0.00" timeLoss="0.21" rerouteNo="0" devices="tripinfo_CAVToC.1 routing_CAVToC.1 ssm_CAVToC.1 toc_CAVToC.1 driverstateCAVToC.1" vType="vehLVOS570" speedFactor="1.09" vaporized=""/>
    <tripinfo id="CVToC.1" depart="4.00" departLane="entry_1" departPos="111.63" departSpeed="36.44" departDelay="0.00" arrival="130.90" arrivalLane="e0_1" arrivalPos="4800.00" arrivalSpeed="38.60" duration="126.90" routeLength="4888.37" waitingTime="0.00" waitingCount="0" stopTime="0.00" timeLoss="0.51" rerouteNo="0" devices="tripinfo_CVToC.1 routing_CVToC.1 ssm_CVToC.1 toc_CVToC.1 driverstateCVToC.1" vType="vehLVOS974" speedFactor="1.07" vaporized=""/>
    <tripinfo id="CAVToC.0" depart="0.10" departLane="entry_0" departPos="199.90" departSpeed="36.04" departDelay="0.00" arrival="133.40" arrivalLane="e0_0" arrivalPos="4800.00" arrivalSpeed="36.04" duration="133.30" routeLength="4800.10" waitingTime="0.00" waitingCount="0" stopTime="0.00" timeLoss="0.02" rerouteNo="0" devices="tripinfo_CAVToC.0 routing_CAVToC.0 ssm_CAVToC.0 toc_CAVToC.0 driverstateCAVToC.0" vType="vehLVOS610" speedFactor="1.00" vaporized=""/>
    <tripinfo id="CVToC.0" depart="1.80" departLane="entry_0" departPos="182.87" departSpeed="36.26" departDelay="0.00" arrival="134.50" arrivalLane="e0_1" arrivalPos="4800.00" arrivalSpeed="37.17" duration="132.70" routeLength="4817.13" waitingTime="0.00" waitingCount="0" stopTime="0.00" timeLoss="3.19" rerouteNo="0" devices="tripinfo_CVToC.0 routing_CVToC.0 ssm_CVToC.0 toc_CVToC.0 driverstateCVToC.0" vType="vehLVOS323" speedFactor="1.03" vaporized=""/>
    <tripinfo id="CAVToC.4" depart="6.80" departLane="entry_1" departPos="136.84" departSpeed="37.32" departDelay="0.00" arrival="138.00" arrivalLane="e0_1" arrivalPos="4800.00" arrivalSpeed="37.28" duration="131.20" routeLength="4863.16" waitingTime="0.00" waitingCount="0" stopTime="0.00" timeLoss="0.84" rerouteNo="0" devices="tripinfo_CAVToC.4 routing_CAVToC.4 ssm_CAVToC.4 toc_CAVToC.4 driverstateCAVToC.4" vType="vehLVOS598" speedFactor="1.03" vaporized=""/>
    <tripinfo id="LV.1" depart="2.90" departLane="entry_0" departPos="197.62" departSpeed="35.57" departDelay="0.00" arrival="138.10" arrivalLane="e0_0" arrivalPos="4800.00" arrivalSpeed="35.49" duration="135.20" routeLength="4802.38" waitingTime="0.00" waitingCount="0" stopTime="0.00" timeLoss="0.18" rerouteNo="0" devices="tripinfo_LV.1 routing_LV.1 ssm_LV.1" vType="vehLVOS125" speedFactor="0.99" vaporized=""/>
    <tripinfo id="LV.2" depart="8.30" departLane="entry_1" departPos="70.26" departSpeed="39.63" departDelay="0.10" arrival="139.70" arrivalLane="e0_1" arrivalPos="4800.00" arrivalSpeed="39.61" duration="131.40" routeLength="4929.74" waitingTime="0.00" waitingCount="0" stopTime="0.00" timeLoss="6.92" rerouteNo="0" devices="tripinfo_LV.2 routing_LV.2 ssm_LV.2" vType="vehLVOS984" speedFactor="1.10" vaporized=""/>
    <tripinfo id="CAVToC.2" depart="3.20" departLane="entry_0" departPos="121.08" departSpeed="36.18" departDelay="0.00" arrival="140.00" arrivalLane="e0_0" arrivalPos="4800.00" arrivalSpeed="38.94" duration="136.80" routeLength="4878.92" waitingTime="0.00" waitingCount="0" stopTime="0.00" timeLoss="20.33" rerouteNo="0" devices="tripinfo_CAVToC.2 routing_CAVToC.2 ssm_CAVToC.2 toc_CAVToC.2 driverstateCAVToC.2" vType="vehLVOS439" speedFactor="1.16" vaporized=""/>
    <tripinfo id="CVToC.3" depart="10.00" departLane="entry_1" departPos="61.00" departSpeed="35.46" departDelay="0.00" arrival="149.60" arrivalLane="e0_1" arrivalPos="4800.00" arrivalSpeed="35.34" duration="139.60" routeLength="4939.00" waitingTime="0.00" waitingCount="0" stopTime="0.00" timeLoss="0.26" rerouteNo="0" devices="tripinfo_CVToC.3 routing_CVToC.3 ssm_CVToC.3 toc_CVToC.3 driverstateCVToC.3" vType="vehLVOS15" speedFactor="0.98" vaporized=""/>
    <tripinfo id="CAVToC.3" depart="4.20" departLane="entry_0" departPos="85.67" departSpeed="33.73" departDelay="0.00" arrival="151.90" arrivalLane="e0_0" arrivalPos="4800.00" arrivalSpeed="33.69" duration="147.70" routeLength="4914.33" waitingTime="0.00" waitingCount="0" stopTime="0.00" timeLoss="1.93" rerouteNo="0" devices="tripinfo_CAVToC.3 routing_CAVToC.3 ssm_CAVToC.3 toc_CAVToC.3 driverstateCAVToC.3" vType="vehLVOS768" speedFactor="0.93" vaporized=""/>
    <tripinfo id="LV.3" depart="11.10" departLane="entry_0" departPos="14.10" departSpeed="35.84" departDelay="0.70" arrival="153.70" arrivalLane="e0_1" arrivalPos="4800.00" arrivalSpeed="35.76" duration="142.60" routeLength="4985.90" waitingTime="0.00" waitingCount="0" stopTime="0.00" timeLoss="3.44" rerouteNo="0" devices="tripinfo_LV.3 routing_LV.3 ssm_LV.3" vType="vehLVOS369" speedFactor="0.99" vaporized=""/>
    <tripinfo id="CVToC.4" depart="13.20" departLane="entry_1" departPos="11.82" departSpeed="32.87" departDelay="1.30" arrival="154.90" arrivalLane="e0_1" arrivalPos="4800.00" arrivalSpeed="37.62" duration="141.70" routeLength="4988.18" waitingTime="0.00" waitingCount="0" stopTime="0.00" timeLoss="11.62" rerouteNo="0" devices="tripinfo_CVToC.4 routing_CVToC.4 ssm_CVToC.4 toc_CVToC.4 driverstateCVToC.4" vType="vehLVOS690" speedFactor="1.06" vaporized=""/>
    <tripinfo id="CAVToC.7" depart="14.70" departLane="entry_0" departPos="43.38" departSpeed="33.15" departDelay="0.10" arrival="155.70" arrivalLane="e0_1" arrivalPos="4800.00" arrivalSpeed="38.30" duration="141.00" routeLength="4956.62" waitingTime="0.00" waitingCount="0" stopTime="0.00" timeLoss="20.16" rerouteNo="0" devices="tripinfo_CAVToC.7 routing_CAVToC.7 ssm_CAVToC.7 toc_CAVToC.7 driverstateCAVToC.7" vType="vehLVOS851" speedFactor="1.14" vaporized=""/>
    <tripinfo id="CAVToC.8" depart="16.20" departLane="entry_0" departPos="7.27" departSpeed="33.41" departDelay="0.70" arrival="157.30" arrivalLane="e0_1" arrivalPos="4800.00" arrivalSpeed="38.21" duration="141.10" routeLength="4992.73" waitingTime="0.00" waitingCount="0" stopTime="0.00" timeLoss="10.58" rerouteNo="0" devices="tripinfo_CAVToC.8 routing_CAVToC.8 ssm_CAVToC.8 toc_CAVToC.8 driverstateCAVToC.8" vType="vehLVOS757" speedFactor="1.06" vaporized=""/>
    <tripinfo id="CAVToC.9" depart="17.60" departLane="entry_1" departPos="0.51" departSpeed="30.69" departDelay="1.20" arrival="158.70" arrivalLane="e0_1" arrivalPos="4800.00" arrivalSpeed="39.58" duration="141.10" routeLength="4999.49" waitingTime="0.00" waitingCount="0" stopTime="0.00" timeLoss="15.39" rerouteNo="0" devices="tripinfo_CAVToC.9 routing_CAVToC.9 ssm_CAVToC.9 toc_CAVToC.9 driverstateCAVToC.9" vType="vehLVOS668" speedFactor="1.10" vaporized=""/>
    <tripinfo id="CAVToC.5" depart="6.90" departLane="entry_0" departPos="107.96" departSpeed="32.20" departDelay="0.00" arrival="159.60" arrivalLane="e0_0" arrivalPos="4800.00" arrivalSpeed="32.15" duration="152.70" routeLength="4892.04" waitingTime="0.00" waitingCount="0" stopTime="0.00" timeLoss="0.74" rerouteNo="0" devices="tripinfo_CAVToC.5 routing_CAVToC.5 ssm_CAVToC.5 toc_CAVToC.5 driverstateCAVToC.5" vType="vehLVOS174" speedFactor="0.89" vaporized=""/>
    <tripinfo id="CVToC.2" depart="7.90" departLane="entry_0" departPos="59.83" departSpeed="32.79" departDelay="0.00" arrival="160.70" arrivalLane="e0_0" arrivalPos="4800.00" arrivalSpeed="33.33" duration="152.80" routeLength="4940.17" waitingTime="0.00" waitingCount="0" stopTime="0.00" timeLoss="18.92" rerouteNo="0" devices="tripinfo_CVToC.2 routing_CVToC.2 ssm_CVToC.2 toc_CVToC.2 driverstateCVToC.2" vType="vehLVOS536" speedFactor="1.02" vaporized=""/>
    <tripinfo id="CVToC.9" depart="20.40" departLane="entry_1" departPos="3.68" departSpeed="31.33" departDelay="1.70" arrival="161.60" arrivalLane="e0_1" arrivalPos="4800.00" arrivalSpeed="37.27" duration="141.20" routeLength="4996.32" waitingTime="0.00" waitingCount="0" stopTime="0.00" timeLoss="7.56" rerouteNo="0" devices="tripinfo_CVToC.9 routing_CVToC.9 ssm_CVToC.9 toc_CVToC.9 driverstateCVToC.9" vType="vehLVOS642" speedFactor="1.04" vaporized=""/>
    <tripinfo id="CVToC.7" depart="19.10" departLane="entry_0" departPos="4.63" departSpeed="28.15" departDelay="2.50" arrival="162.70" arrivalLane="e0_1" arrivalPos="4800.00" arrivalSpeed="38.94" duration="143.60" routeLength="4995.37" waitingTime="0.00" waitingCount="0" stopTime="0.00" timeLoss="15.24" rerouteNo="0" devices="tripinfo_CVToC.7 routing_CVToC.7 ssm_CVToC.7 toc_CVToC.7 driverstateCVToC.7" vType="vehLVOS83" speedFactor="1.08" vaporized=""/>
    <tripinfo id="CAVToC.6" depart="10.30" departLane="entry_1" departPos="2.20" departSpeed="32.13" departDelay="0.10" arrival="166.00" arrivalLane="e0_0" arrivalPos="4800.00" arrivalSpeed="32.12" duration="155.70" routeLength="4997.80" waitingTime="0.00" waitingCount="0" stopTime="0.00" timeLoss="0.15" rerouteNo="0" devices="tripinfo_CAVToC.6 routing_CAVToC.6 ssm_CAVToC.6 toc_CAVToC.6 driverstateCAVToC.6" vType="vehLVOS2" speedFactor="0.89" vaporized=""/>
    <tripinfo id="CVToC.5" depart="25.60" departLane="entry_1" departPos="2.48" departSpeed="32.39" departDelay="11.00" arrival="175.80" arrivalLane="e0_1" arrivalPos="4800.00" arrivalSpeed="42.07" duration="150.20" routeLength="4997.52" waitingTime="0.00" waitingCount="0" stopTime="0.00" timeLoss="31.36" rerouteNo="0" devices="tripinfo_CVToC.5 routing_CVToC.5 ssm_CVToC.5 toc_CVToC.5 driverstateCVToC.5" vType="vehLVOS265" speedFactor="1.17" vaporized=""/>
    <tripinfo id="CAVToC.10" depart="23.30" departLane="entry_1" departPos="22.63" departSpeed="31.36" departDelay="4.10" arrival="179.90" arrivalLane="e0_0" arrivalPos="4800.00" arrivalSpeed="32.63" duration="156.60" routeLength="4977.37" waitingTime="0.00" waitingCount="0" stopTime="0.00" timeLoss="4.09" rerouteNo="0" devices="tripinfo_CAVToC.10 routing_CAVToC.10 ssm_CAVToC.10 toc_CAVToC.10 driverstateCAVToC.10" vType="vehLVOS546" speedFactor="0.90" vaporized=""/>
    <tripinfo id="CVToC.13" depart="27.90" departLane="entry_1" departPos="4.16" departSpeed="32.42" departDelay="4.20" arrival="183.50" arrivalLane="e0_0" arrivalPos="4800.00" arrivalSpeed="33.77" duration="155.60" routeLength="4995.84" waitingTime="0.00" waitingCount="0" stopTime="0.00" timeLoss="7.72" rerouteNo="0" devices="tripinfo_CVToC.13 routing_CVToC.13 ssm_CVToC.13 toc_CVToC.13 driverstateCVToC.13" vType="vehLVOS234" speedFactor="0.94" vaporized=""/>
    <tripinfo id="CVToC.6" depart="15.50" departLane="entry_1" departPos="26.03" departSpeed="29.55" departDelay="0.20" arrival="184.40" arrivalLane="e0_0" arrivalPos="4800.00" arrivalSpeed="29.49" duration="168.90" routeLength="4973.97" waitingTime="0.00" waitingCount="0" stopTime="0.00" timeLoss="0.48" rerouteNo="0" devices="tripinfo_CVToC.6 routing_CVToC.6 ssm_CVToC.6 toc_CVToC.6 driverstateCVToC.6" vType="vehLVOS198" speedFactor="0.82" vaporized=""/>
    <tripinfo id="CVToC.11" depart="24.80" departLane="entry_0" departPos="0.85" departSpeed="29.68" departDelay="3.90" arrival="184.60" arrivalLane="e0_1" arrivalPos="4800.00" arrivalSpeed="36.14" duration="159.80" routeLength="4999.15" waitingTime="0.00" waitingCount="0" stopTime="0.00" timeLoss="21.60" rerouteNo="0" devices="tripinfo_CVToC.11 routing_CVToC.11 ssm_CVToC.11 toc_CVToC.11 driverstateCVToC.11" vType="vehLVOS108" speedFactor="1.00" vaporized=""/>
    <tripinfo id="CVToC.12" depart="22.00" departLane="entry_0" departPos="0.43" departSpeed="29.08" departDelay="1.00" arrival="185.50" arrivalLane="e0_0" arrivalPos="4800.00" arrivalSpeed="31.74" duration="163.50" routeLength="4999.57" waitingTime="0.00" waitingCount="0" stopTime="0.00" timeLoss="31.47" rerouteNo="0" devices="tripinfo_CVToC.12 routing_CVToC.12 ssm_CVToC.12 toc_CVToC.12 driverstateCVToC.12" vType="vehLVOS848" speedFactor="1.05" vaporized=""/>
    <tripinfo id="CVToC.14" depart="27.60" departLane="entry_0" departPos="0.53" departSpeed="30.29" departDelay="2.60" arrival="187.20" arrivalLane="e0_0" arrivalPos="4800.00" arrivalSpeed="34.38" duration="159.60" routeLength="4999.47" waitingTime="0.00" waitingCount="0" stopTime="0.00" timeLoss="29.23" rerouteNo="0" devices="tripinfo_CVToC.14 routing_CVToC.14 ssm_CVToC.14 toc_CVToC.14 driverstateCVToC.14" vType="vehLVOS8" speedFactor="1.06" vaporized=""/>
    <tripinfo id="CAVToC.11" depart="29.90" departLane="entry_1" departPos="1.53" departSpeed="31.69" departDelay="4.50" arrival="190.50" arrivalLane="e0_0" arrivalPos="4800.00" arrivalSpeed="31.68" duration="160.60" routeLength="4998.47" waitingTime="0.00" waitingCount="0" stopTime="0.00" timeLoss="2.83" rerouteNo="0" devices="tripinfo_CAVToC.11 routing_CAVToC.11 ssm_CAVToC.11 toc_CAVToC.11 driverstateCAVToC.11" vType="vehLVOS298" speedFactor="0.88" vaporized=""/>
    <tripinfo id="CVToC.15" depart="32.60" departLane="entry_1" departPos="11.59" departSpeed="32.22" departDelay="6.20" arrival="191.90" arrivalLane="e0_1" arrivalPos="4800.00" arrivalSpeed="35.19" duration="159.30" routeLength="4988.41" waitingTime="0.00" waitingCount="0" stopTime="0.00" timeLoss="20.86" rerouteNo="0" devices="tripinfo_CVToC.15 routing_CVToC.15 ssm_CVToC.15 toc_CVToC.15 driverstateCVToC.15" vType="vehLVOS895" speedFactor="1.00" vaporized=""/>
    <tripinfo id="CAVToC.12" depart="30.00" departLane="entry_0" departPos="8.59" departSpeed="30.37" departDelay="3.50" arrival="194.10" arrivalLane="e0_0" arrivalPos="4800.00" arrivalSpeed="31.24" duration="164.10" routeLength="4991.41" waitingTime="0.00" waitingCount="0" stopTime="0.00" timeLoss="4.29" rerouteNo="0" devices="tripinfo_CAVToC.12 routing_CAVToC.12 ssm_CAVToC.12 toc_CAVToC.12 driverstateCAVToC.12" vType="vehLVOS421" speedFactor="0.87" vaporized=""/>
    <tripinfo id="CVToC.17" depart="34.80" departLane="entry_1" departPos="12.27" departSpeed="31.77" departDelay="3.70" arrival="194.30" arrivalLane="e0_1" arrivalPos="4800.00" arrivalSpeed="31.67" duration="159.50" routeLength="4987.73" waitingTime="0.00" waitingCount="0" stopTime="0.00" timeLoss="2.48" rerouteNo="0" devices="tripinfo_CVToC.17 routing_CVToC.17 ssm_CVToC.17 toc_CVToC.17 driverstateCVToC.17" vType="vehLVOS879" speedFactor="0.88" vaporized=""/>
    <tripinfo id="CVToC.19" depart="36.90" departLane="entry_1" departPos="7.44" departSpeed="32.09" departDelay="1.10" arrival="195.20" arrivalLane="e0_1" arrivalPos="4800.00" arrivalSpeed="33.54" duration="158.30" routeLength="4992.56" waitingTime="0.00" waitingCount="0" stopTime="0.00" timeLoss="11.49" rerouteNo="0" devices="tripinfo_CVToC.19 routing_CVToC.19 ssm_CVToC.19 toc_CVToC.19 driverstateCVToC.19" vType="vehLVOS507" speedFactor="0.94" vaporized=""/>
    <tripinfo id="CVToC.8" depart="36.70" departLane="entry_0" departPos="0.61" departSpeed="31.02" departDelay="19.70" arrival="196.50" arrivalLane="e0_1" arrivalPos="4800.00" arrivalSpeed="34.03" duration="159.80" routeLength="4999.39" waitingTime="0.00" waitingCount="0" stopTime="0.00" timeLoss="50.53" rerouteNo="0" devices="tripinfo_CVToC.8 routing_CVToC.8 ssm_CVToC.8 toc_CVToC.8 driverstateCVToC.8" vType="vehLVOS15" speedFactor="1.27" vaporized=""/>
    <tripinfo id="CVToC.18" depart="41.60" departLane="entry_1" departPos="9.66" departSpeed="32.31" departDelay="7.80" arrival="197.40" arrivalLane="e0_1" arrivalPos="4800.00" arrivalSpeed="35.00" duration="155.80" routeLength="4990.34" waitingTime="0.00" waitingCount="0" stopTime="0.00" timeLoss="21.40" rerouteNo="0" devices="tripinfo_CVToC.18 routing_CVToC.18 ssm_CVToC.18 toc_CVToC.18 driverstateCVToC.18" vType="vehLVOS391" speedFactor="1.03" vaporized=""/>
    <tripinfo id="CVToC.10" depart="33.50" departLane="entry_0" departPos="3.65" departSpeed="29.52" departDelay="13.90" arrival="197.50" arrivalLane="e0_0" arrivalPos="4800.00" arrivalSpeed="35.20" duration="164.00" routeLength="4996.35" waitingTime="0.00" waitingCount="0" stopTime="0.00" timeLoss="38.15" rerouteNo="0" devices="tripinfo_CVToC.10 routing_CVToC.10 ssm_CVToC.10 toc_CVToC.10 driverstateCVToC.10" vType="vehLVOS822" speedFactor="1.10" vaporized=""/>
    <tripinfo id="CAVToC.13" depart="39.00" departLane="entry_1" departPos="4.08" departSpeed="32.06" departDelay="9.80" arrival="199.00" arrivalLane="e0_0" arrivalPos="4800.00" arrivalSpeed="33.36" duration="160.00" routeLength="4995.92" waitingTime="0.00" waitingCount="0" stopTime="0.00" timeLoss="10.25" rerouteNo="0" devices="tripinfo_CAVToC.13 routing_CAVToC.13 ssm_CAVToC.13 toc_CAVToC.13 driverstateCAVToC.13" vType="vehLVOS245" speedFactor="0.92" vaporized=""/>
    <tripinfo id="CVToC.16" depart="44.20" departLane="entry_1" departPos="0.27" departSpeed="32.92" departDelay="15.80" arrival="200.00" arrivalLane="e0_1" arrivalPos="4800.00" arrivalSpeed="39.07" duration="155.80" routeLength="4999.73" waitingTime="0.00" waitingCount="0" stopTime="0.00" timeLoss="35.67" rerouteNo="0" devices="tripinfo_CVToC.16 routing_CVToC.16 ssm_CVToC.16 toc_CVToC.16 driverstateCVToC.16" vType="vehLVOS203" speedFactor="1.15" vaporized=""/>
    <tripinfo id="CAVToC.14" depart="46.80" departLane="entry_1" departPos="2.67" departSpeed="32.55" departDelay="13.60" arrival="201.60" arrivalLane="e0_1" arrivalPos="4800.00" arrivalSpeed="36.74" duration="154.80" routeLength="4997.33" waitingTime="0.00" waitingCount="0" stopTime="0.00" timeLoss="18.93" rerouteNo="0" devices="tripinfo_CAVToC.14 routing_CAVToC.14 ssm_CAVToC.14 toc_CAVToC.14 driverstateCAVToC.14" vType="vehLVOS120" speedFactor="1.02" vaporized=""/>
    <tripinfo id="CVToC.22" depart="49.40" departLane="entry_1" departPos="0.19" departSpeed="32.24" departDelay="7.00" arrival="203.40" arrivalLane="e0_1" arrivalPos="4800.00" arrivalSpeed="39.13" duration="154.00" routeLength="4999.81" waitingTime="0.00" waitingCount="0" stopTime="0.00" timeLoss="26.22" rerouteNo="0" devices="tripinfo_CVToC.22 routing_CVToC.22 ssm_CVToC.22 toc_CVToC.22 driverstateCVToC.22" vType="vehLVOS172" speedFactor="1.08" vaporized=""/>
    <tripinfo id="LV.4" depart="30.20" departLane="entry_0" departPos="1.14" departSpeed="28.22" departDelay="1.80" arrival="211.10" arrivalLane="e0_0" arrivalPos="4800.00" arrivalSpeed="28.22" duration="180.90" routeLength="4998.86" waitingTime="0.00" waitingCount="0" stopTime="0.00" timeLoss="3.66" rerouteNo="0" devices="tripinfo_LV.4 routing_LV.4 ssm_LV.4" vType="vehLVOS592" speedFactor="0.78" vaporized=""/>
    <tripinfo id="LV.7" depart="51.30" departLane="entry_1" departPos="2.46" departSpeed="32.28" departDelay="0.30" arrival="211.50" arrivalLane="e0_1" arrivalPos="4800.00" arrivalSpeed="32.20" duration="160.20" routeLength="4997.54" waitingTime="0.00" waitingCount="0" stopTime="0.00" timeLoss="5.34" rerouteNo="0" devices="tripinfo_LV.7 routing_LV.7 ssm_LV.7" vType="vehLVOS782" speedFactor="0.89" vaporized=""/>
    <tripinfo id="CVToC.20" depart="39.30" departLane="entry_0" departPos="2.97" departSpeed="29.74" departDelay="1.70" arrival="211.90" arrivalLane="e0_0" arrivalPos="4800.00" arrivalSpeed="30.56" duration="172.60" routeLength="4997.03" waitingTime="0.00" waitingCount="0" stopTime="0.00" timeLoss="33.23" rerouteNo="0" devices="tripinfo_CVToC.20 routing_CVToC.20 ssm_CVToC.20 toc_CVToC.20 driverstateCVToC.20" vType="vehLVOS875" speedFactor="0.99" vaporized=""/>
    <tripinfo id="CVToC.21" depart="42.10" departLane="entry_0" departPos="8.93" departSpeed="30.06" departDelay="3.00" arrival="213.70" arrivalLane="e0_0" arrivalPos="4800.00" arrivalSpeed="31.67" duration="171.60" routeLength="4991.07" waitingTime="0.00" waitingCount="0" stopTime="0.00" timeLoss="31.56" rerouteNo="0" devices="tripinfo_CVToC.21 routing_CVToC.21 ssm_CVToC.21 toc_CVToC.21 driverstateCVToC.21" vType="vehLVOS680" speedFactor="0.99" vaporized=""/>
    <tripinfo id="CAVToC.16" depart="44.30" departLane="entry_0" departPos="2.46" departSpeed="30.06" departDelay="0.60" arrival="215.70" arrivalLane="e0_0" arrivalPos="4800.00" arrivalSpeed="33.18" duration="171.40" routeLength="4997.54" waitingTime="0.00" waitingCount="0" stopTime="0.00" timeLoss="21.09" rerouteNo="0" devices="tripinfo_CAVToC.16 routing_CAVToC.16 ssm_CAVToC.16 toc_CAVToC.16 driverstateCAVToC.16" vType="vehLVOS684" speedFactor="0.92" vaporized=""/>
    <tripinfo id="CVToC.25" depart="49.60" departLane="entry_0" departPos="8.87" departSpeed="29.33" departDelay="3.10" arrival="216.60" arrivalLane="e0_1" arrivalPos="4800.00" arrivalSpeed="33.49" duration="167.00" routeLength="4991.13" waitingTime="0.00" waitingCount="0" stopTime="0.00" timeLoss="18.53" rerouteNo="0" devices="tripinfo_CVToC.25 routing_CVToC.25 ssm_CVToC.25 toc_CVToC.25 driverstateCVToC.25" vType="vehLVOS574" speedFactor="0.93" vaporized=""/>
    <tripinfo id="CAVToC.15" depart="46.90" departLane="entry_0" departPos="0.59" departSpeed="30.05" departDelay="9.10" arrival="217.80" arrivalLane="e0_1" arrivalPos="4800.00" arrivalSpeed="33.11" duration="170.90" routeLength="4999.41" waitingTime="0.00" waitingCount="0" stopTime="0.00" timeLoss="39.14" rerouteNo="0" devices="tripinfo_CAVToC.15 routing_CAVToC.15 ssm_CAVToC.15 toc_CAVToC.15 driverstateCAVToC.15" vType="vehLVOS933" speedFactor="1.05" vaporized=""/>
    <tripinfo id="CAVToC.17" depart="54.20" departLane="entry_1" departPos="30.15" departSpeed="28.57" departDelay="2.90" arrival="231.50" arrivalLane="e0_1" arrivalPos="4800.00" arrivalSpeed="28.54" duration="177.30" routeLength="4969.85" waitingTime="0.00" waitingCount="0" stopTime="0.00" timeLoss="3.28" rerouteNo="0" devices="tripinfo_CAVToC.17 routing_CAVToC.17 ssm_CAVToC.17 toc_CAVToC.17 driverstateCAVToC.17" vType="vehLVOS274" speedFactor="0.79" vaporized=""/>
    <tripinfo id="CVToC.23" depart="52.60" departLane="entry_0" departPos="7.16" departSpeed="29.25" departDelay="8.40" arrival="232.50" arrivalLane="e0_0" arrivalPos="4800.00" arrivalSpeed="29.94" duration="179.90" routeLength="4992.84" waitingTime="0.00" waitingCount="0" stopTime="0.00" timeLoss="56.06" rerouteNo="0" devices="tripinfo_CVToC.23 routing_CVToC.23 ssm_CVToC.23 toc_CVToC.23 driverstateCVToC.23" vType="vehLVOS975" speedFactor="1.12" vaporized=""/>
    <tripinfo id="CVToC.26" depart="56.40" departLane="entry_1" departPos="1.19" departSpeed="30.11" departDelay="8.70" arrival="232.50" arrivalLane="e0_1" arrivalPos="4800.00" arrivalSpeed="30.15" duration="176.10" routeLength="4998.81" waitingTime="0.00" waitingCount="0" stopTime="0.00" timeLoss="59.88" rerouteNo="0" devices="tripinfo_CVToC.26 routing_CVToC.26 ssm_CVToC.26 toc_CVToC.26 driverstateCVToC.26" vType="vehLVOS478" speedFactor="1.19" vaporized=""/>
    <tripinfo id="CAVToC.18" depart="60.60" departLane="entry_1" departPos="58.79" departSpeed="30.01" departDelay="4.30" arrival="235.00" arrivalLane="e0_1" arrivalPos="4800.00" arrivalSpeed="30.62" duration="174.40" routeLength="4941.21" waitingTime="0.00" waitingCount="0" stopTime="0.00" timeLoss="13.57" rerouteNo="0" devices="tripinfo_CAVToC.18 routing_CAVToC.18 ssm_CAVToC.18 toc_CAVToC.18 driverstateCAVToC.18" vType="vehLVOS59" speedFactor="0.85" vaporized=""/>
    <tripinfo id="CVToC.24" depart="56.70" departLane="entry_0" departPos="28.95" departSpeed="29.20" departDelay="11.20" arrival="235.50" arrivalLane="e0_0" arrivalPos="4800.00" arrivalSpeed="36.08" duration="178.80" routeLength="4971.05" waitingTime="0.00" waitingCount="0" stopTime="0.00" timeLoss="59.47" rerouteNo="0" devices="tripinfo_CVToC.24 routing_CVToC.24 ssm_CVToC.24 toc_CVToC.24 driverstateCVToC.24" vType="vehLVOS243" speedFactor="1.15" vaporized=""/>
    <tripinfo id="CAVToC.20" depart="62.20" departLane="entry_1" departPos="25.75" departSpeed="30.63" departDelay="5.30" arrival="236.10" arrivalLane="e0_1" arrivalPos="4800.00" arrivalSpeed="33.84" duration="173.90" routeLength="4974.25" waitingTime="0.00" waitingCount="0" stopTime="0.00" timeLoss="35.82" rerouteNo="0" devices="tripinfo_CAVToC.20 routing_CAVToC.20 ssm_CAVToC.20 toc_CAVToC.20 driverstateCAVToC.20" vType="vehLVOS163" speedFactor="1.00" vaporized=""/>
    <tripinfo id="CVToC.27" depart="58.90" departLane="entry_0" departPos="8.93" departSpeed="30.15" departDelay="4.80" arrival="238.00" arrivalLane="e0_0" arrivalPos="4800.00" arrivalSpeed="34.78" duration="179.10" routeLength="4991.07" waitingTime="0.00" waitingCount="0" stopTime="0.00" timeLoss="54.61" rerouteNo="0" devices="tripinfo_CVToC.27 routing_CVToC.27 ssm_CVToC.27 toc_CVToC.27 driverstateCVToC.27" vType="vehLVOS663" speedFactor="1.11" vaporized=""/>
    <tripinfo id="CVToC.28" depart="65.10" departLane="entry_1" departPos="28.06" departSpeed="31.29" departDelay="2.80" arrival="238.40" arrivalLane="e0_1" arrivalPos="4800.00" arrivalSpeed="34.73" duration="173.30" routeLength="4971.94" waitingTime="0.00" waitingCount="0" stopTime="0.00" timeLoss="43.30" rerouteNo="0" devices="tripinfo_CVToC.28 routing_CVToC.28 ssm_CVToC.28 toc_CVToC.28 driverstateCVToC.28" vType="vehLVOS112" speedFactor="1.06" vaporized=""/>
    <tripinfo id="LV.8" depart="69.60" departLane="entry_1" departPos="10.46" departSpeed="40.22" departDelay="15.50" arrival="239.50" arrivalLane="e0_1" arrivalPos="4800.00" arrivalSpeed="34.67" duration="169.90" routeLength="4989.54" waitingTime="0.00" waitingCount="0" stopTime="0.00" timeLoss="45.82" rerouteNo="0" devices="tripinfo_LV.8 routing_LV.8 ssm_LV.8" vType="vehLVOS981" speedFactor="1.11" vaporized=""/>
    <tripinfo id="LV.9" depart="71.30" departLane="entry_1" departPos="23.61" departSpeed="38.35" departDelay="13.50" arrival="240.70" arrivalLane="e0_0" arrivalPos="4800.00" arrivalSpeed="35.66" duration="169.40" routeLength="4976.39" waitingTime="0.00" waitingCount="0" stopTime="0.00" timeLoss="39.61" rerouteNo="0" devices="tripinfo_LV.9 routing_LV.9 ssm_LV.9" vType="vehLVOS573" speedFactor="1.06" vaporized=""/>
    <tripinfo id="LV.12" depart="73.30" departLane="entry_1" departPos="73.53" departSpeed="36.20" departDelay="9.30" arrival="241.50" arrivalLane="e0_0" arrivalPos="4800.00" arrivalSpeed="35.87" duration="168.20" routeLength="4926.47" waitingTime="0.00" waitingCount="0" stopTime="0.00" timeLoss="32.04" rerouteNo="0" devices="tripinfo_LV.12 routing_LV.12 ssm_LV.12" vType="vehLVOS648" speedFactor="1.00" vaporized=""/>
    <tripinfo id="CAVToC.22" depart="73.60" departLane="entry_1" departPos="8.72" departSpeed="35.82" departDelay="13.30" arrival="241.90" arrivalLane="e0_1" arrivalPos="4800.00" arrivalSpeed="35.73" duration="168.30" routeLength="4991.28" waitingTime="0.00" waitingCount="0" stopTime="0.00" timeLoss="28.94" rerouteNo="0" devices="tripinfo_CAVToC.22 routing_CAVToC.22 ssm_CAVToC.22 toc_CAVToC.22 driverstateCAVToC.22" vType="vehLVOS816" speedFactor="0.99" vaporized=""/>
    <tripinfo id="LV.11" depart="76.00" departLane="entry_1" departPos="7.01" departSpeed="40.49" departDelay="14.70" arrival="242.70" arrivalLane="e0_1" arrivalPos="4800.00" arrivalSpeed="36.69" duration="166.70" routeLength="4992.99" waitingTime="0.00" waitingCount="0" stopTime="0.00" timeLoss="43.38" rerouteNo="0" devices="tripinfo_LV.11 routing_LV.11 ssm_LV.11" vType="vehLVOS514" speedFactor="1.12" vaporized=""/>
    <tripinfo id="CAVToC.21" depart="62.70" departLane="entry_0" departPos="32.73" departSpeed="30.16" departDelay="3.40" arrival="243.80" arrivalLane="e0_0" arrivalPos="4800.00" arrivalSpeed="37.87" duration="181.10" routeLength="4967.27" waitingTime="0.00" waitingCount="0" stopTime="0.00" timeLoss="55.62" rerouteNo="0" devices="tripinfo_CAVToC.21 routing_CAVToC.21 ssm_CAVToC.21 toc_CAVToC.21 driverstateCAVToC.21" vType="vehLVOS339" speedFactor="1.10" vaporized=""/>