<?xml version="1.0" encoding="UTF-8"?>

<!-- generated on 09/23/20 09:18:30 by Eclipse SUMO Version 1.6.0
<configuration xmlns:xsi="http://www.w3.org/2001/XMLSchema-instance" xsi:noNamespaceSchemaLocation="http://sumo.dlr.de/xsd/sumoConfiguration.xsd">

    <input>
        <net-file value="scenario/UC5_1.net.xml"/>
        <route-files value="scenario/routes_trafficMix_0_trafficDemand_1_driverBehaviour_OS_seed_0.xml"/>
        <additional-files value="scenario/additionalsOutput_trafficMix_0_trafficDemand_1_driverBehaviour_OS_seed_0.xml,scenario/vTypesCAVToC_OS.add.xml,scenario/vTypesCVToC_OS.add.xml,scenario/vTypesLV_OS.add.xml,scenario/shapes.add.xml,scenario/view.add.xml"/>
    </input>

    <output>
        <tripinfo-output value="C:\Users\laborknecht\Aris\workspace\ma-branch\tor-distribution/outputs/simulations/DQN__2020-09-22_18-08-57__20200923-090819/tripinfo_2.xml"/>
    </output>

    <time>
        <step-length value="0.1"/>
    </time>

    <processing>
        <step-method.ballistic value="true"/>
        <ignore-route-errors value="true"/>
        <lanechange.duration value="2.5"/>
    </processing>

    <report>
        <no-step-log value="true"/>
    </report>

    <toc_device>
        <device.toc.ogNewTimeHeadway value="100"/>
        <device.toc.ogNewSpaceHeadway value="5"/>
        <device.toc.ogMaxDecel value="1"/>
        <device.toc.ogChangeRate value="1"/>
    </toc_device>

    <traci_server>
        <remote-port value="50984"/>
    </traci_server>

    <random_number>
        <seed value="1026"/>
    </random_number>

    <gui_only>
        <tracker-interval value="0.1"/>
    </gui_only>

</configuration>
-->

<tripinfos xmlns:xsi="http://www.w3.org/2001/XMLSchema-instance" xsi:noNamespaceSchemaLocation="http://sumo.dlr.de/xsd/tripinfo_file.xsd">
    <tripinfo id="CAVToC.0" depart="2.30" departLane="entry_1" departPos="199.90" departSpeed="37.60" departDelay="0.00" arrival="130.10" arrivalLane="e0_1" arrivalPos="4800.00" arrivalSpeed="37.56" duration="127.80" routeLength="4800.10" waitingTime="0.00" waitingCount="0" stopTime="0.00" timeLoss="0.14" rerouteNo="0" devices="tripinfo_CAVToC.0 routing_CAVToC.0 ssm_CAVToC.0 toc_CAVToC.0 driverstateCAVToC.0" vType="vehLVOS186" speedFactor="1.04" vaporized=""/>
    <tripinfo id="CVToC.1" depart="3.40" departLane="entry_0" departPos="199.90" departSpeed="40.66" departDelay="0.00" arrival="131.20" arrivalLane="e0_0" arrivalPos="4800.00" arrivalSpeed="39.46" duration="127.80" routeLength="4800.10" waitingTime="0.00" waitingCount="0" stopTime="0.00" timeLoss="9.65" rerouteNo="0" devices="tripinfo_CVToC.1 routing_CVToC.1 ssm_CVToC.1 toc_CVToC.1 driverstateCVToC.1" vType="vehLVOS82" speedFactor="1.13" vaporized=""/>
    <tripinfo id="CVToC.4" depart="9.60" departLane="entry_1" departPos="95.47" departSpeed="36.40" departDelay="0.20" arrival="137.40" arrivalLane="e0_0" arrivalPos="4800.00" arrivalSpeed="40.42" duration="127.80" routeLength="4904.53" waitingTime="0.00" waitingCount="0" stopTime="0.00" timeLoss="6.63" rerouteNo="0" devices="tripinfo_CVToC.4 routing_CVToC.4 ssm_CVToC.4 toc_CVToC.4 driverstateCVToC.4" vType="vehLVOS294" speedFactor="1.12" vaporized=""/>
    <tripinfo id="CVToC.3" depart="4.90" departLane="entry_1" departPos="134.06" departSpeed="32.11" departDelay="0.00" arrival="139.80" arrivalLane="e0_0" arrivalPos="4800.00" arrivalSpeed="36.94" duration="134.90" routeLength="4865.94" waitingTime="0.00" waitingCount="0" stopTime="0.00" timeLoss="3.41" rerouteNo="0" devices="tripinfo_CVToC.3 routing_CVToC.3 ssm_CVToC.3 toc_CVToC.3 driverstateCVToC.3" vType="vehLVOS366" speedFactor="1.03" vaporized=""/>
    <tripinfo id="LV.1" depart="7.50" departLane="entry_0" departPos="25.08" departSpeed="38.64" departDelay="0.00" arrival="141.90" arrivalLane="e0_1" arrivalPos="4800.00" arrivalSpeed="38.63" duration="134.40" routeLength="4974.92" waitingTime="0.00" waitingCount="0" stopTime="0.00" timeLoss="5.62" rerouteNo="0" devices="tripinfo_LV.1 routing_LV.1 ssm_LV.1" vType="vehLVOS626" speedFactor="1.07" vaporized=""/>
    <tripinfo id="LV.0" depart="6.70" departLane="entry_1" departPos="72.45" departSpeed="36.64" departDelay="0.00" arrival="142.60" arrivalLane="e0_0" arrivalPos="4800.00" arrivalSpeed="36.63" duration="135.90" routeLength="4927.55" waitingTime="0.00" waitingCount="0" stopTime="0.00" timeLoss="1.40" rerouteNo="0" devices="tripinfo_LV.0 routing_LV.0 ssm_LV.0" vType="vehLVOS214" speedFactor="1.01" vaporized=""/>
    <tripinfo id="LV.2" depart="12.20" departLane="entry_1" departPos="2.89" departSpeed="31.83" departDelay="2.20" arrival="144.60" arrivalLane="e0_1" arrivalPos="4800.00" arrivalSpeed="45.51" duration="132.40" routeLength="4997.11" waitingTime="0.00" waitingCount="0" stopTime="0.00" timeLoss="22.79" rerouteNo="0" devices="tripinfo_LV.2 routing_LV.2 ssm_LV.2" vType="vehLVOS150" speedFactor="1.26" vaporized=""/>
    <tripinfo id="CAVToC.4" depart="16.20" departLane="entry_1" departPos="42.19" departSpeed="33.72" departDelay="0.00" arrival="148.40" arrivalLane="e0_1" arrivalPos="4800.00" arrivalSpeed="42.22" duration="132.20" routeLength="4957.81" waitingTime="0.00" waitingCount="0" stopTime="0.00" timeLoss="14.80" rerouteNo="0" devices="tripinfo_CAVToC.4 routing_CAVToC.4 ssm_CAVToC.4 toc_CAVToC.4 driverstateCAVToC.4" vType="vehLVOS392" speedFactor="1.17" vaporized=""/>
    <tripinfo id="CAVToC.3" depart="11.10" departLane="entry_0" departPos="4.97" departSpeed="32.83" departDelay="0.50" arrival="148.50" arrivalLane="e0_0" arrivalPos="4800.00" arrivalSpeed="37.61" duration="137.40" routeLength="4995.03" waitingTime="0.00" waitingCount="0" stopTime="0.00" timeLoss="4.51" rerouteNo="0" devices="tripinfo_CAVToC.3 routing_CAVToC.3 ssm_CAVToC.3 toc_CAVToC.3 driverstateCAVToC.3" vType="vehLVOS164" speedFactor="1.04" vaporized=""/>
    <tripinfo id="LV.3" depart="13.40" departLane="entry_0" departPos="63.20" departSpeed="28.26" departDelay="0.50" arrival="155.20" arrivalLane="e0_0" arrivalPos="4800.00" arrivalSpeed="36.65" duration="141.80" routeLength="4936.80" waitingTime="0.00" waitingCount="0" stopTime="0.00" timeLoss="7.18" rerouteNo="0" devices="tripinfo_LV.3 routing_LV.3 ssm_LV.3" vType="vehLVOS711" speedFactor="1.02" vaporized=""/>
    <tripinfo id="CVToC.0" depart="2.80" departLane="entry_1" departPos="150.81" departSpeed="31.43" departDelay="0.00" arrival="157.30" arrivalLane="e0_0" arrivalPos="4800.00" arrivalSpeed="31.38" duration="154.50" routeLength="4849.19" waitingTime="0.00" waitingCount="0" stopTime="0.00" timeLoss="0.20" rerouteNo="0" devices="tripinfo_CVToC.0 routing_CVToC.0 ssm_CVToC.0 toc_CVToC.0 driverstateCVToC.0" vType="vehLVOS285" speedFactor="0.87" vaporized=""/>
    <tripinfo id="CVToC.7" depart="21.10" departLane="entry_1" departPos="5.77" departSpeed="31.90" departDelay="0.40" arrival="157.30" arrivalLane="e0_1" arrivalPos="4800.00" arrivalSpeed="41.10" duration="136.20" routeLength="4994.23" waitingTime="0.00" waitingCount="0" stopTime="0.00" timeLoss="14.76" rerouteNo="0" devices="tripinfo_CVToC.7 routing_CVToC.7 ssm_CVToC.7 toc_CVToC.7 driverstateCVToC.7" vType="vehLVOS9" speedFactor="1.14" vaporized=""/>
    <tripinfo id="CVToC.2" depart="4.40" departLane="entry_0" departPos="160.40" departSpeed="38.08" departDelay="0.00" arrival="158.50" arrivalLane="e0_0" arrivalPos="4800.00" arrivalSpeed="33.63" duration="154.10" routeLength="4839.60" waitingTime="0.00" waitingCount="0" stopTime="0.00" timeLoss="27.02" rerouteNo="0" devices="tripinfo_CVToC.2 routing_CVToC.2 ssm_CVToC.2 toc_CVToC.2 driverstateCVToC.2" vType="vehLVOS145" speedFactor="1.05" vaporized=""/>
    <tripinfo id="CVToC.9" depart="24.00" departLane="entry_1" departPos="16.90" departSpeed="32.54" departDelay="0.20" arrival="160.60" arrivalLane="e0_1" arrivalPos="4800.00" arrivalSpeed="39.16" duration="136.60" routeLength="4983.10" waitingTime="0.00" waitingCount="0" stopTime="0.00" timeLoss="9.31" rerouteNo="0" devices="tripinfo_CVToC.9 routing_CVToC.9 ssm_CVToC.9 toc_CVToC.9 driverstateCVToC.9" vType="vehLVOS361" speedFactor="1.08" vaporized=""/>
    <tripinfo id="CAVToC.1" depart="5.20" departLane="entry_0" departPos="100.96" departSpeed="36.79" departDelay="0.00" arrival="161.00" arrivalLane="e0_0" arrivalPos="4800.00" arrivalSpeed="36.68" duration="155.80" routeLength="4899.04" waitingTime="0.00" waitingCount="0" stopTime="0.00" timeLoss="37.33" rerouteNo="0" devices="tripinfo_CAVToC.1 routing_CAVToC.1 ssm_CAVToC.1 toc_CAVToC.1 driverstateCAVToC.1" vType="vehLVOS909" speedFactor="1.15" vaporized=""/>
    <tripinfo id="LV.4" depart="17.10" departLane="entry_1" departPos="27.44" departSpeed="34.53" departDelay="0.00" arrival="162.40" arrivalLane="e0_0" arrivalPos="4800.00" arrivalSpeed="34.41" duration="145.30" routeLength="4972.56" waitingTime="0.00" waitingCount="0" stopTime="0.00" timeLoss="1.21" rerouteNo="0" devices="tripinfo_LV.4 routing_LV.4 ssm_LV.4" vType="vehLVOS44" speedFactor="0.96" vaporized=""/>
    <tripinfo id="CAVToC.6" depart="19.80" departLane="entry_0" departPos="16.63" departSpeed="34.95" departDelay="0.10" arrival="162.60" arrivalLane="e0_1" arrivalPos="4800.00" arrivalSpeed="40.11" duration="142.80" routeLength="4983.37" waitingTime="0.00" waitingCount="0" stopTime="0.00" timeLoss="18.72" rerouteNo="0" devices="tripinfo_CAVToC.6 routing_CAVToC.6 ssm_CAVToC.6 toc_CAVToC.6 driverstateCAVToC.6" vType="vehLVOS734" speedFactor="1.11" vaporized=""/>
    <tripinfo id="CAVToC.5" depart="16.50" departLane="entry_0" departPos="66.85" departSpeed="35.80" departDelay="0.00" arrival="163.40" arrivalLane="e0_1" arrivalPos="4800.00" arrivalSpeed="41.53" duration="146.90" routeLength="4933.15" waitingTime="0.00" waitingCount="0" stopTime="0.00" timeLoss="30.28" rerouteNo="0" devices="tripinfo_CAVToC.5 routing_CAVToC.5 ssm_CAVToC.5 toc_CAVToC.5 driverstateCAVToC.5" vType="vehLVOS507" speedFactor="1.17" vaporized=""/>
    <tripinfo id="CAVToC.2" depart="8.70" departLane="entry_0" departPos="5.62" departSpeed="32.19" departDelay="0.00" arrival="164.90" arrivalLane="e0_0" arrivalPos="4800.00" arrivalSpeed="32.09" duration="156.20" routeLength="4994.38" waitingTime="0.00" waitingCount="0" stopTime="0.00" timeLoss="1.02" rerouteNo="0" devices="tripinfo_CAVToC.2 routing_CAVToC.2 ssm_CAVToC.2 toc_CAVToC.2 driverstateCAVToC.2" vType="vehLVOS297" speedFactor="0.89" vaporized=""/>
    <tripinfo id="CVToC.5" depart="17.60" departLane="entry_0" departPos="31.40" departSpeed="33.77" departDelay="0.10" arrival="166.80" arrivalLane="e0_1" arrivalPos="4800.00" arrivalSpeed="34.69" duration="149.20" routeLength="4968.60" waitingTime="0.00" waitingCount="0" stopTime="0.00" timeLoss="5.95" rerouteNo="0" devices="tripinfo_CVToC.5 routing_CVToC.5 ssm_CVToC.5 toc_CVToC.5 driverstateCVToC.5" vType="vehLVOS17" speedFactor="0.96" vaporized=""/>
    <tripinfo id="LV.5" depart="28.50" departLane="entry_1" departPos="2.29" departSpeed="37.00" departDelay="5.40" arrival="177.90" arrivalLane="e0_1" arrivalPos="4800.00" arrivalSpeed="36.98" duration="149.40" routeLength="4997.71" waitingTime="0.00" waitingCount="0" stopTime="0.00" timeLoss="14.28" rerouteNo="0" devices="tripinfo_LV.5 routing_LV.5 ssm_LV.5" vType="vehLVOS671" speedFactor="1.02" vaporized=""/>
    <tripinfo id="CAVToC.7" depart="25.90" departLane="entry_1" departPos="9.36" departSpeed="32.58" departDelay="0.30" arrival="178.20" arrivalLane="e0_0" arrivalPos="4800.00" arrivalSpeed="33.30" duration="152.30" routeLength="4990.64" waitingTime="0.00" waitingCount="0" stopTime="0.00" timeLoss="2.43" rerouteNo="0" devices="tripinfo_CAVToC.7 routing_CAVToC.7 ssm_CAVToC.7 toc_CAVToC.7 driverstateCAVToC.7" vType="vehLVOS217" speedFactor="0.92" vaporized=""/>
    <tripinfo id="CVToC.10" depart="25.40" departLane="entry_0" departPos="7.39" departSpeed="30.43" departDelay="0.80" arrival="179.60" arrivalLane="e0_1" arrivalPos="4800.00" arrivalSpeed="36.28" duration="154.20" routeLength="4992.61" waitingTime="0.00" waitingCount="0" stopTime="0.00" timeLoss="16.93" rerouteNo="0" devices="tripinfo_CVToC.10 routing_CVToC.10 ssm_CVToC.10 toc_CVToC.10 driverstateCVToC.10" vType="vehLVOS788" speedFactor="1.01" vaporized=""/>
    <tripinfo id="CVToC.8" depart="22.50" departLane="entry_0" departPos="2.52" departSpeed="29.87" departDelay="1.30" arrival="180.70" arrivalLane="e0_1" arrivalPos="4800.00" arrivalSpeed="37.59" duration="158.20" routeLength="4997.48" waitingTime="0.00" waitingCount="0" stopTime="0.00" timeLoss="48.52" rerouteNo="0" devices="tripinfo_CVToC.8 routing_CVToC.8 ssm_CVToC.8 toc_CVToC.8 driverstateCVToC.8" vType="vehLVOS266" speedFactor="1.26" vaporized=""/>
    <tripinfo id="CVToC.6" depart="18.30" departLane="entry_1" departPos="4.74" departSpeed="30.79" departDelay="0.00" arrival="180.80" arrivalLane="e0_0" arrivalPos="4800.00" arrivalSpeed="30.69" duration="162.50" routeLength="4995.26" waitingTime="0.00" waitingCount="0" stopTime="0.00" timeLoss="0.26" rerouteNo="0" devices="tripinfo_CVToC.6 routing_CVToC.6 ssm_CVToC.6 toc_CVToC.6 driverstateCVToC.6" vType="vehLVOS915" speedFactor="0.85" vaporized=""/>
    <tripinfo id="LV.7" depart="31.70" departLane="entry_1" departPos="111.46" departSpeed="30.12" departDelay="0.00" arrival="194.30" arrivalLane="e0_1" arrivalPos="4800.00" arrivalSpeed="30.12" duration="162.60" routeLength="4888.54" waitingTime="0.00" waitingCount="0" stopTime="0.00" timeLoss="0.20" rerouteNo="0" devices="tripinfo_LV.7 routing_LV.7 ssm_LV.7" vType="vehLVOS909" speedFactor="0.83" vaporized=""/>
    <tripinfo id="CAVToC.8" depart="29.30" departLane="entry_0" departPos="52.63" departSpeed="30.58" departDelay="0.00" arrival="195.20" arrivalLane="e0_0" arrivalPos="4800.00" arrivalSpeed="31.04" duration="165.90" routeLength="4947.37" waitingTime="0.00" waitingCount="0" stopTime="0.00" timeLoss="21.73" rerouteNo="0" devices="tripinfo_CAVToC.8 routing_CAVToC.8 ssm_CAVToC.8 toc_CAVToC.8 driverstateCAVToC.8" vType="vehLVOS131" speedFactor="0.95" vaporized=""/>
    <tripinfo id="CAVToC.10" depart="31.80" departLane="entry_1" departPos="40.75" departSpeed="30.70" departDelay="0.20" arrival="196.30" arrivalLane="e0_1" arrivalPos="4800.00" arrivalSpeed="34.10" duration="164.50" routeLength="4959.25" waitingTime="0.00" waitingCount="0" stopTime="0.00" timeLoss="23.40" rerouteNo="0" devices="tripinfo_CAVToC.10 routing_CAVToC.10 ssm_CAVToC.10 toc_CAVToC.10 driverstateCAVToC.10" vType="vehLVOS775" speedFactor="0.97" vaporized=""/>
    <tripinfo id="CAVToC.9" depart="30.60" departLane="entry_0" departPos="10.22" departSpeed="31.22" departDelay="0.90" arrival="197.20" arrivalLane="e0_1" arrivalPos="4800.00" arrivalSpeed="34.53" duration="166.60" routeLength="4989.78" waitingTime="0.00" waitingCount="0" stopTime="0.00" timeLoss="31.33" rerouteNo="0" devices="tripinfo_CAVToC.9 routing_CAVToC.9 ssm_CAVToC.9 toc_CAVToC.9 driverstateCAVToC.9" vType="vehLVOS43" speedFactor="1.02" vaporized=""/>
    <tripinfo id="CAVToC.12" depart="35.80" departLane="entry_1" departPos="52.48" departSpeed="30.08" departDelay="0.00" arrival="197.20" arrivalLane="e0_0" arrivalPos="4800.00" arrivalSpeed="32.54" duration="161.40" routeLength="4947.52" waitingTime="0.00" waitingCount="0" stopTime="0.00" timeLoss="20.91" rerouteNo="0" devices="tripinfo_CAVToC.12 routing_CAVToC.12 ssm_CAVToC.12 toc_CAVToC.12 driverstateCAVToC.12" vType="vehLVOS528" speedFactor="0.98" vaporized=""/>
    <tripinfo id="CVToC.12" depart="37.90" departLane="entry_1" departPos="19.83" departSpeed="31.43" departDelay="0.50" arrival="198.80" arrivalLane="e0_1" arrivalPos="4800.00" arrivalSpeed="35.86" duration="160.90" routeLength="4980.17" waitingTime="0.00" waitingCount="0" stopTime="0.00" timeLoss="47.66" rerouteNo="0" devices="tripinfo_CVToC.12 routing_CVToC.12 ssm_CVToC.12 toc_CVToC.12 driverstateCVToC.12" vType="vehLVOS349" speedFactor="1.22" vaporized=""/>
    <tripinfo id="CVToC.11" depart="37.80" departLane="entry_0" departPos="59.72" departSpeed="30.24" departDelay="0.70" arrival="199.80" arrivalLane="e0_0" arrivalPos="4800.00" arrivalSpeed="34.24" duration="162.00" routeLength="4940.28" waitingTime="0.00" waitingCount="0" stopTime="0.00" timeLoss="39.54" rerouteNo="0" devices="tripinfo_CVToC.11 routing_CVToC.11 ssm_CVToC.11 toc_CVToC.11 driverstateCVToC.11" vType="vehLVOS516" speedFactor="1.12" vaporized=""/>
    <tripinfo id="CAVToC.13" depart="40.30" departLane="entry_1" departPos="17.15" departSpeed="31.84" departDelay="1.10" arrival="200.60" arrivalLane="e0_1" arrivalPos="4800.00" arrivalSpeed="35.46" duration="160.30" routeLength="4982.85" waitingTime="0.00" waitingCount="0" stopTime="0.00" timeLoss="19.77" rerouteNo="0" devices="tripinfo_CAVToC.13 routing_CAVToC.13 ssm_CAVToC.13 toc_CAVToC.13 driverstateCAVToC.13" vType="vehLVOS512" speedFactor="0.98" vaporized=""/>
    <tripinfo id="LV.11" depart="45.20" departLane="entry_1" departPos="2.10" departSpeed="42.28" departDelay="3.00" arrival="202.50" arrivalLane="e0_1" arrivalPos="4800.00" arrivalSpeed="34.13" duration="157.30" routeLength="4997.90" waitingTime="0.00" waitingCount="0" stopTime="0.00" timeLoss="39.08" rerouteNo="0" devices="tripinfo_LV.11 routing_LV.11 ssm_LV.11" vType="vehLVOS258" speedFactor="1.17" vaporized=""/>
    <tripinfo id="LV.8" depart="34.40" departLane="entry_1" departPos="86.97" departSpeed="29.85" departDelay="0.20" arrival="203.50" arrivalLane="e0_0" arrivalPos="4800.00" arrivalSpeed="29.76" duration="169.10" routeLength="4913.03" waitingTime="0.00" waitingCount="0" stopTime="0.00" timeLoss="4.47" rerouteNo="0" devices="tripinfo_LV.8 routing_LV.8 ssm_LV.8" vType="vehLVOS366" speedFactor="0.83" vaporized=""/>
    <tripinfo id="LV.9" depart="44.70" departLane="entry_0" departPos="8.03" departSpeed="41.31" departDelay="8.50" arrival="203.80" arrivalLane="e0_1" arrivalPos="4800.00" arrivalSpeed="34.89" duration="159.10" routeLength="4991.97" waitingTime="0.00" waitingCount="0" stopTime="0.00" timeLoss="38.21" rerouteNo="0" devices="tripinfo_LV.9 routing_LV.9 ssm_LV.9" vType="vehLVOS316" speedFactor="1.14" vaporized=""/>
    <tripinfo id="CAVToC.11" depart="33.60" departLane="entry_0" departPos="25.93" departSpeed="30.71" departDelay="0.10" arrival="204.40" arrivalLane="e0_0" arrivalPos="4800.00" arrivalSpeed="31.73" duration="170.80" routeLength="4974.07" waitingTime="0.00" waitingCount="0" stopTime="0.00" timeLoss="30.76" rerouteNo="0" devices="tripinfo_CAVToC.11 routing_CAVToC.11 ssm_CAVToC.11 toc_CAVToC.11 driverstateCAVToC.11" vType="vehLVOS860" speedFactor="0.98" vaporized=""/>
    <tripinfo id="CVToC.13" depart="47.10" departLane="entry_1" departPos="2.99" departSpeed="36.35" departDelay="4.50" arrival="206.40" arrivalLane="e0_1" arrivalPos="4800.00" arrivalSpeed="36.28" duration="159.30" routeLength="4997.01" waitingTime="0.00" waitingCount="0" stopTime="0.00" timeLoss="23.41" rerouteNo="0" devices="tripinfo_CVToC.13 routing_CVToC.13 ssm_CVToC.13 toc_CVToC.13 driverstateCVToC.13" vType="vehLVOS852" speedFactor="1.02" vaporized=""/>
    <tripinfo id="LV.10" depart="39.10" departLane="entry_0" departPos="9.82" departSpeed="32.26" departDelay="0.20" arrival="206.80" arrivalLane="e0_0" arrivalPos="4800.00" arrivalSpeed="32.25" duration="167.70" routeLength="4990.18" waitingTime="0.00" waitingCount="0" stopTime="0.00" timeLoss="12.95" rerouteNo="0" devices="tripinfo_LV.10 routing_LV.10 ssm_LV.10" vType="vehLVOS214" speedFactor="0.89" vaporized=""/>
    <tripinfo id="CAVToC.16" depart="49.00" departLane="entry_1" departPos="1.68" departSpeed="32.85" departDelay="3.20" arrival="208.00" arrivalLane="e0_1" arrivalPos="4800.00" arrivalSpeed="32.70" duration="159.00" routeLength="4998.32" waitingTime="0.00" waitingCount="0" stopTime="0.00" timeLoss="6.78" rerouteNo="0" devices="tripinfo_CAVToC.16 routing_CAVToC.16 ssm_CAVToC.16 toc_CAVToC.16 driverstateCAVToC.16" vType="vehLVOS255" speedFactor="0.91" vaporized=""/>
    <tripinfo id="CVToC.16" depart="51.50" departLane="entry_1" departPos="3.29" departSpeed="33.30" departDelay="1.50" arrival="208.90" arrivalLane="e0_1" arrivalPos="4800.00" arrivalSpeed="35.59" duration="157.40" routeLength="4996.71" waitingTime="0.00" waitingCount="0" stopTime="0.00" timeLoss="19.23" rerouteNo="0" devices="tripinfo_CVToC.16 routing_CVToC.16 ssm_CVToC.16 toc_CVToC.16 driverstateCVToC.16" vType="vehLVOS123" speedFactor="1.00" vaporized=""/>
    <tripinfo id="CAVToC.15" depart="46.50" departLane="entry_0" departPos="3.00" departSpeed="36.35" departDelay="3.20" arrival="209.60" arrivalLane="e0_0" arrivalPos="4800.00" arrivalSpeed="35.77" duration="163.10" routeLength="4997.00" waitingTime="0.00" waitingCount="0" stopTime="0.00" timeLoss="28.11" rerouteNo="0" devices="tripinfo_CAVToC.15 routing_CAVToC.15 ssm_CAVToC.15 toc_CAVToC.15 driverstateCAVToC.15" vType="vehLVOS491" speedFactor="1.03" vaporized=""/>
    <tripinfo id="CAVToC.14" depart="54.30" departLane="entry_1" departPos="10.92" departSpeed="33.85" departDelay="11.60" arrival="209.90" arrivalLane="e0_1" arrivalPos="4800.00" arrivalSpeed="35.62" duration="155.60" routeLength="4989.08" waitingTime="0.00" waitingCount="0" stopTime="0.00" timeLoss="26.41" rerouteNo="0" devices="tripinfo_CAVToC.14 routing_CAVToC.14 ssm_CAVToC.14 toc_CAVToC.14 driverstateCAVToC.14" vType="vehLVOS844" speedFactor="1.07" vaporized=""/>
    <tripinfo id="CVToC.15" depart="48.50" departLane="entry_0" departPos="5.06" departSpeed="32.77" departDelay="1.40" arrival="210.80" arrivalLane="e0_0" arrivalPos="4800.00" arrivalSpeed="32.73" duration="162.30" routeLength="4994.94" waitingTime="0.00" waitingCount="0" stopTime="0.00" timeLoss="9.82" rerouteNo="0" devices="tripinfo_CVToC.15 routing_CVToC.15 ssm_CVToC.15 toc_CVToC.15 driverstateCVToC.15" vType="vehLVOS961" speedFactor="0.91" vaporized=""/>
    <tripinfo id="CAVToC.20" depart="59.20" departLane="entry_1" departPos="10.49" departSpeed="29.76" departDelay="1.40" arrival="212.00" arrivalLane="e0_1" arrivalPos="4800.00" arrivalSpeed="33.68" duration="152.80" routeLength="4989.51" waitingTime="0.00" waitingCount="0" stopTime="0.00" timeLoss="5.09" rerouteNo="0" devices="tripinfo_CAVToC.20 routing_CAVToC.20 ssm_CAVToC.20 toc_CAVToC.20 driverstateCAVToC.20" vType="vehLVOS980" speedFactor="0.94" vaporized=""/>
    <tripinfo id="CVToC.14" depart="50.60" departLane="entry_0" departPos="4.61" departSpeed="31.39" departDelay="6.30" arrival="212.30" arrivalLane="e0_0" arrivalPos="4800.00" arrivalSpeed="31.38" duration="161.70" routeLength="4995.39" waitingTime="0.00" waitingCount="0" stopTime="0.00" timeLoss="2.47" rerouteNo="0" devices="tripinfo_CVToC.14 routing_CVToC.14 ssm_CVToC.14 toc_CVToC.14 driverstateCVToC.14" vType="vehLVOS883" speedFactor="0.87" vaporized=""/>
    <tripinfo id="LV.12" depart="63.10" departLane="entry_1" departPos="0.99" departSpeed="40.90" departDelay="9.40" arrival="212.80" arrivalLane="e0_1" arrivalPos="4800.00" arrivalSpeed="35.13" duration="149.70" routeLength="4999.01" waitingTime="0.00" waitingCount="0" stopTime="0.00" timeLoss="27.46" rerouteNo="0" devices="tripinfo_LV.12 routing_LV.12 ssm_LV.12" vType="vehLVOS383" speedFactor="1.13" vaporized=""/>
    <tripinfo id="CAVToC.17" depart="52.90" departLane="entry_0" departPos="2.62" departSpeed="31.80" departDelay="1.90" arrival="214.50" arrivalLane="e0_0" arrivalPos="4800.00" arrivalSpeed="34.42" duration="161.60" routeLength="4997.38" waitingTime="0.00" waitingCount="0" stopTime="0.00" timeLoss="16.43" rerouteNo="0" devices="tripinfo_CAVToC.17 routing_CAVToC.17 ssm_CAVToC.17 toc_CAVToC.17 driverstateCAVToC.17" vType="vehLVOS89" speedFactor="0.95" vaporized=""/>
    <tripinfo id="CAVToC.21" depart="65.50" departLane="entry_1" departPos="6.49" departSpeed="36.92" departDelay="7.60" arrival="215.10" arrivalLane="e0_1" arrivalPos="4800.00" arrivalSpeed="36.28" duration="149.60" routeLength="4993.51" waitingTime="0.00" waitingCount="0" stopTime="0.00" timeLoss="31.77" rerouteNo="0" devices="tripinfo_CAVToC.21 routing_CAVToC.21 ssm_CAVToC.21 toc_CAVToC.21 driverstateCAVToC.21" vType="vehLVOS62" speedFactor="1.17" vaporized=""/>
    <tripinfo id="CVToC.17" depart="56.80" departLane="entry_1" departPos="12.54" departSpeed="29.31" departDelay="2.00" arrival="215.40" arrivalLane="e0_0" arrivalPos="4800.00" arrivalSpeed="32.15" duration="158.60" routeLength="4987.46" waitingTime="0.00" waitingCount="0" stopTime="0.00" timeLoss="3.50" rerouteNo="0" devices="tripinfo_CVToC.17 routing_CVToC.17 ssm_CVToC.17 toc_CVToC.17 driverstateCVToC.17" vType="vehLVOS458" speedFactor="0.89" vaporized=""/>
    <tripinfo id="LV.14" depart="66.70" departLane="entry_1" departPos="0.83" departSpeed="35.12" departDelay="11.50" arrival="218.00" arrivalLane="e0_1" arrivalPos="4800.00" arrivalSpeed="35.10" duration="151.30" routeLength="4999.17" waitingTime="0.00" waitingCount="0" stopTime="0.00" timeLoss="8.89" rerouteNo="0" devices="tripinfo_LV.14 routing_LV.14 ssm_LV.14" vType="vehLVOS752" speedFactor="0.97" vaporized=""/>
    <tripinfo id="LV.15" depart="68.40" departLane="entry_1" departPos="9.39" departSpeed="35.17" departDelay="2.10" arrival="219.40" arrivalLane="e0_0" arrivalPos="4800.00" arrivalSpeed="35.16" duration="151.00" routeLength="4990.61" waitingTime="0.00" waitingCount="0" stopTime="0.00" timeLoss="9.05" rerouteNo="0" devices="tripinfo_LV.15 routing_LV.15 ssm_LV.15" vType="vehLVOS541" speedFactor="0.97" vaporized=""/>
    <tripinfo id="LV.17" depart="70.60" departLane="entry_1" departPos="40.54" departSpeed="36.26" departDelay="1.30" arrival="220.40" arrivalLane="e0_1" arrivalPos="4800.00" arrivalSpeed="36.22" duration="149.80" routeLength="4959.46" waitingTime="0.00" waitingCount="0" stopTime="0.00" timeLoss="13.03" rerouteNo="0" devices="tripinfo_LV.17 routing_LV.17 ssm_LV.17" vType="vehLVOS178" speedFactor="1.00" vaporized=""/>
    <tripinfo id="LV.18" depart="72.70" departLane="entry_1" departPos="26.95" departSpeed="35.28" departDelay="2.00" arrival="223.00" arrivalLane="e0_1" arrivalPos="4800.00" arrivalSpeed="35.22" duration="150.30" routeLength="4973.05" waitingTime="0.00" waitingCount="0" stopTime="0.00" timeLoss="9.28" rerouteNo="0" devices="tripinfo_LV.18 routing_LV.18 ssm_LV.18" vType="vehLVOS991" speedFactor="0.98" vaporized=""/>
    <tripinfo id="CVToC.20" depart="74.10" departLane="entry_1" departPos="2.61" departSpeed="33.45" departDelay="2.80" arrival="225.90" arrivalLane="e0_0" arrivalPos="4800.00" arrivalSpeed="33.43" duration="151.80" routeLength="4997.39" waitingTime="0.00" waitingCount="0" stopTime="0.00" timeLoss="2.34" rerouteNo="0" devices="tripinfo_CVToC.20 routing_CVToC.20 ssm_CVToC.20 toc_CVToC.20 driverstateCVToC.20" vType="vehLVOS756" speedFactor="0.93" vaporized=""/>
    <tripinfo id="LV.16" depart="74.30" departLane="entry_0" departPos="28.78" departSpeed="35.49" departDelay="6.60" arrival="226.80" arrivalLane="e0_1" arrivalPos="4800.00" arrivalSpeed="35.46" duration="152.50" routeLength="4971.22" waitingTime="0.00" waitingCount="0" stopTime="0.00" timeLoss="12.41" rerouteNo="0" devices="tripinfo_LV.16 routing_LV.16 ssm_LV.16" vType="vehLVOS22" speedFactor="0.98" vaporized=""/>
    <tripinfo id="LV.13" depart="55.60" departLane="entry_1" departPos="47.26" departSpeed="28.90" departDelay="1.40" arrival="228.00" arrivalLane="e0_0" arrivalPos="4800.00" arrivalSpeed="28.86" duration="172.40" routeLength="4952.74" waitingTime="0.00" waitingCount="0" stopTime="0.00" timeLoss="0.93" rerouteNo="0" devices="tripinfo_LV.13 routing_LV.13 ssm_LV.13" vType="vehLVOS693" speedFactor="0.80" vaporized=""/>
    <tripinfo id="CAVToC.24" depart="76.90" departLane="entry_1" departPos="11.92" departSpeed="34.02" departDelay="4.50" arrival="228.60" arrivalLane="e0_1" arrivalPos="4800.00" arrivalSpeed="37.46" duration="151.70" routeLength="4988.08" waitingTime="0.00" waitingCount="0" stopTime="0.00" timeLoss="20.07" rerouteNo="0" devices="tripinfo_CAVToC.24 routing_CAVToC.24 ssm_CAVToC.24 toc_CAVToC.24 driverstateCAVToC.24" vType="vehLVOS302" speedFactor="1.05" vaporized=""/>
    <tripinfo id="CAVToC.18" depart="55.80" departLane="entry_0" departPos="11.71" departSpeed="32.53" departDelay="1.60" arrival="229.40" arrivalLane="e0_0" arrivalPos="4800.00" arrivalSpeed="30.38" duration="173.60" routeLength="4988.29" waitingTime="0.00" waitingCount="0" stopTime="0.00" timeLoss="46.64" rerouteNo="0" devices="tripinfo_CAVToC.18 routing_CAVToC.18 ssm_CAVToC.18 toc_CAVToC.18 driverstateCAVToC.18" vType="vehLVOS654" speedFactor="1.09" vaporized=""/>
    <tripinfo id="CVToC.22" depart="79.10" departLane="entry_1" departPos="3.67" departSpeed="34.65" departDelay="3.90" arrival="230.00" arrivalLane="e0_1" arrivalPos="4800.00" arrivalSpeed="36.25" duration="150.90" routeLength="4996.33" waitingTime="0.00" waitingCount="0" stopTime="0.00" timeLoss="27.76" rerouteNo="0" devices="tripinfo_CVToC.22 routing_CVToC.22 ssm_CVToC.22 toc_CVToC.22 driverstateCVToC.22" vType="vehLVOS994" speedFactor="1.12" vaporized=""/>
    <tripinfo id="CAVToC.19" depart="58.20" departLane="entry_0" departPos="4.23" departSpeed="27.23" departDelay="3.10" arrival="230.60" arrivalLane="e0_0" arrivalPos="4800.00" arrivalSpeed="32.03" duration="172.40" routeLength="4995.77" waitingTime="0.00" waitingCount="0" stopTime="0.00" timeLoss="36.42" rerouteNo="0" devices="tripinfo_CAVToC.19 routing_CAVToC.19 ssm_CAVToC.19 toc_CAVToC.19 driverstateCAVToC.19" vType="vehLVOS726" speedFactor="1.02" vaporized=""/>
    <tripinfo id="CAVToC.27" depart="81.60" departLane="entry_1" departPos="8.66" departSpeed="35.07" departDelay="1.20" arrival="232.40" arrivalLane="e0_1" arrivalPos="4800.00" arrivalSpeed="37.87" duration="150.80" routeLength="4991.34" waitingTime="0.00" waitingCount="0" stopTime="0.00" timeLoss="24.12" rerouteNo="0" devices="tripinfo_CAVToC.27 routing_CAVToC.27 ssm_CAVToC.27 toc_CAVToC.27 driverstateCAVToC.27" vType="vehLVOS895" speedFactor="1.09" vaporized=""/>