<?xml version="1.0" encoding="UTF-8"?>

<!-- generated on 09/23/20 09:08:23 by Eclipse SUMO Version 1.6.0
<configuration xmlns:xsi="http://www.w3.org/2001/XMLSchema-instance" xsi:noNamespaceSchemaLocation="http://sumo.dlr.de/xsd/sumoConfiguration.xsd">

    <input>
        <net-file value="scenario/UC5_1.net.xml"/>
        <route-files value="scenario/routes_trafficMix_0_trafficDemand_1_driverBehaviour_OS_seed_0.xml"/>
        <additional-files value="scenario/additionalsOutput_trafficMix_0_trafficDemand_1_driverBehaviour_OS_seed_0.xml,scenario/vTypesCAVToC_OS.add.xml,scenario/vTypesCVToC_OS.add.xml,scenario/vTypesLV_OS.add.xml,scenario/shapes.add.xml,scenario/view.add.xml"/>
    </input>

    <output>
        <tripinfo-output value="C:\Users\laborknecht\Aris\workspace\ma-branch\tor-distribution/outputs/simulations/DQN__2020-09-22_18-08-57__20200923-090819/tripinfo_1.xml"/>
    </output>

    <time>
        <step-length value="0.1"/>
    </time>

    <processing>
        <step-method.ballistic value="true"/>
        <ignore-route-errors value="true"/>
        <lanechange.duration value="2.5"/>
    </processing>

    <report>
        <no-step-log value="true"/>
    </report>

    <toc_device>
        <device.toc.ogNewTimeHeadway value="100"/>
        <device.toc.ogNewSpaceHeadway value="5"/>
        <device.toc.ogMaxDecel value="1"/>
        <device.toc.ogChangeRate value="1"/>
    </toc_device>

    <traci_server>
        <remote-port value="50969"/>
    </traci_server>

    <random_number>
        <seed value="1025"/>
    </random_number>

    <gui_only>
        <tracker-interval value="0.1"/>
    </gui_only>

</configuration>
-->

<tripinfos xmlns:xsi="http://www.w3.org/2001/XMLSchema-instance" xsi:noNamespaceSchemaLocation="http://sumo.dlr.de/xsd/tripinfo_file.xsd">
    <tripinfo id="CVToC.2" depart="7.10" departLane="entry_1" departPos="199.90" departSpeed="37.77" departDelay="0.00" arrival="133.10" arrivalLane="e0_1" arrivalPos="4800.00" arrivalSpeed="40.56" duration="126.00" routeLength="4800.10" waitingTime="0.00" waitingCount="0" stopTime="0.00" timeLoss="7.65" rerouteNo="0" devices="tripinfo_CVToC.2 routing_CVToC.2 ssm_CVToC.2 toc_CVToC.2 driverstateCVToC.2" vType="vehLVOS696" speedFactor="1.12" vaporized=""/>
    <tripinfo id="LV.0" depart="4.60" departLane="entry_1" departPos="199.90" departSpeed="37.23" departDelay="0.00" arrival="133.80" arrivalLane="e0_0" arrivalPos="4800.00" arrivalSpeed="37.10" duration="129.20" routeLength="4800.10" waitingTime="0.00" waitingCount="0" stopTime="0.00" timeLoss="0.26" rerouteNo="0" devices="tripinfo_LV.0 routing_LV.0 ssm_LV.0" vType="vehLVOS656" speedFactor="1.03" vaporized=""/>
    <tripinfo id="LV.1" depart="8.00" departLane="entry_1" departPos="44.38" departSpeed="39.19" departDelay="0.00" arrival="138.60" arrivalLane="e0_1" arrivalPos="4800.00" arrivalSpeed="39.12" duration="130.60" routeLength="4955.62" waitingTime="0.00" waitingCount="0" stopTime="0.00" timeLoss="4.05" rerouteNo="0" devices="tripinfo_LV.1 routing_LV.1 ssm_LV.1" vType="vehLVOS687" speedFactor="1.09" vaporized=""/>
    <tripinfo id="CVToC.0" depart="2.30" departLane="entry_0" departPos="199.90" departSpeed="35.42" departDelay="0.00" arrival="139.20" arrivalLane="e0_0" arrivalPos="4800.00" arrivalSpeed="35.24" duration="136.90" routeLength="4800.10" waitingTime="0.00" waitingCount="0" stopTime="0.00" timeLoss="1.28" rerouteNo="0" devices="tripinfo_CVToC.0 routing_CVToC.0 ssm_CVToC.0 toc_CVToC.0 driverstateCVToC.0" vType="vehLVOS473" speedFactor="0.98" vaporized=""/>
    <tripinfo id="CVToC.3" depart="9.10" departLane="entry_1" departPos="2.61" departSpeed="36.84" departDelay="0.10" arrival="139.80" arrivalLane="e0_1" arrivalPos="4800.00" arrivalSpeed="40.98" duration="130.70" routeLength="4997.39" waitingTime="0.00" waitingCount="0" stopTime="0.00" timeLoss="10.87" rerouteNo="0" devices="tripinfo_CVToC.3 routing_CVToC.3 ssm_CVToC.3 toc_CVToC.3 driverstateCVToC.3" vType="vehLVOS944" speedFactor="1.16" vaporized=""/>
    <tripinfo id="CVToC.5" depart="13.90" departLane="entry_1" departPos="29.04" departSpeed="23.60" departDelay="0.20" arrival="150.90" arrivalLane="e0_1" arrivalPos="4800.00" arrivalSpeed="37.69" duration="137.00" routeLength="4970.96" waitingTime="0.00" waitingCount="0" stopTime="0.00" timeLoss="5.39" rerouteNo="0" devices="tripinfo_CVToC.5 routing_CVToC.5 ssm_CVToC.5 toc_CVToC.5 driverstateCVToC.5" vType="vehLVOS998" speedFactor="1.05" vaporized=""/>
    <tripinfo id="CVToC.1" depart="3.50" departLane="entry_0" departPos="173.54" departSpeed="32.53" departDelay="0.00" arrival="152.20" arrivalLane="e0_0" arrivalPos="4800.00" arrivalSpeed="32.41" duration="148.70" routeLength="4826.46" waitingTime="0.00" waitingCount="0" stopTime="0.00" timeLoss="0.31" rerouteNo="0" devices="tripinfo_CVToC.1 routing_CVToC.1 ssm_CVToC.1 toc_CVToC.1 driverstateCVToC.1" vType="vehLVOS645" speedFactor="0.90" vaporized=""/>
    <tripinfo id="CAVToC.0" depart="10.10" departLane="entry_0" departPos="199.90" departSpeed="32.14" departDelay="0.10" arrival="159.60" arrivalLane="e0_0" arrivalPos="4800.00" arrivalSpeed="32.11" duration="149.50" routeLength="4800.10" waitingTime="0.00" waitingCount="0" stopTime="0.00" timeLoss="0.11" rerouteNo="0" devices="tripinfo_CAVToC.0 routing_CAVToC.0 ssm_CAVToC.0 toc_CAVToC.0 driverstateCAVToC.0" vType="vehLVOS228" speedFactor="0.89" vaporized=""/>
    <tripinfo id="CAVToC.2" depart="11.40" departLane="entry_0" departPos="103.72" departSpeed="28.97" departDelay="0.10" arrival="162.70" arrivalLane="e0_1" arrivalPos="4800.00" arrivalSpeed="33.99" duration="151.30" routeLength="4896.28" waitingTime="0.00" waitingCount="0" stopTime="0.00" timeLoss="7.33" rerouteNo="0" devices="tripinfo_CAVToC.2 routing_CAVToC.2 ssm_CAVToC.2 toc_CAVToC.2 driverstateCAVToC.2" vType="vehLVOS876" speedFactor="0.94" vaporized=""/>
    <tripinfo id="LV.5" depart="18.00" departLane="entry_0" departPos="34.32" departSpeed="35.33" departDelay="0.00" arrival="163.60" arrivalLane="e0_1" arrivalPos="4800.00" arrivalSpeed="35.25" duration="145.60" routeLength="4965.68" waitingTime="0.00" waitingCount="0" stopTime="0.00" timeLoss="5.04" rerouteNo="0" devices="tripinfo_LV.5 routing_LV.5 ssm_LV.5" vType="vehLVOS488" speedFactor="0.98" vaporized=""/>
    <tripinfo id="CAVToC.3" depart="19.90" departLane="entry_1" departPos="7.49" departSpeed="31.46" departDelay="0.20" arrival="168.00" arrivalLane="e0_0" arrivalPos="4800.00" arrivalSpeed="37.11" duration="148.10" routeLength="4992.51" waitingTime="0.00" waitingCount="0" stopTime="0.00" timeLoss="13.62" rerouteNo="0" devices="tripinfo_CAVToC.3 routing_CAVToC.3 ssm_CAVToC.3 toc_CAVToC.3 driverstateCAVToC.3" vType="vehLVOS517" speedFactor="1.03" vaporized=""/>
    <tripinfo id="LV.3" depart="13.30" departLane="entry_0" departPos="19.04" departSpeed="33.19" departDelay="0.20" arrival="172.60" arrivalLane="e0_0" arrivalPos="4800.00" arrivalSpeed="33.10" duration="159.30" routeLength="4980.96" waitingTime="0.00" waitingCount="0" stopTime="0.00" timeLoss="9.17" rerouteNo="0" devices="tripinfo_LV.3 routing_LV.3 ssm_LV.3" vType="vehLVOS630" speedFactor="0.92" vaporized=""/>
    <tripinfo id="LV.9" depart="22.80" departLane="entry_1" departPos="12.35" departSpeed="34.03" departDelay="1.00" arrival="174.00" arrivalLane="e0_1" arrivalPos="4800.00" arrivalSpeed="33.97" duration="151.20" routeLength="4987.65" waitingTime="0.00" waitingCount="0" stopTime="0.00" timeLoss="4.56" rerouteNo="0" devices="tripinfo_LV.9 routing_LV.9 ssm_LV.9" vType="vehLVOS437" speedFactor="0.94" vaporized=""/>
    <tripinfo id="LV.8" depart="25.30" departLane="entry_1" departPos="12.21" departSpeed="35.64" departDelay="5.20" arrival="175.80" arrivalLane="e0_1" arrivalPos="4800.00" arrivalSpeed="35.59" duration="150.50" routeLength="4987.79" waitingTime="0.00" waitingCount="0" stopTime="0.00" timeLoss="10.49" rerouteNo="0" devices="tripinfo_LV.8 routing_LV.8 ssm_LV.8" vType="vehLVOS557" speedFactor="0.99" vaporized=""/>
    <tripinfo id="CVToC.10" depart="30.10" departLane="entry_1" departPos="32.15" departSpeed="33.33" departDelay="3.00" arrival="177.60" arrivalLane="e0_0" arrivalPos="4800.00" arrivalSpeed="35.56" duration="147.50" routeLength="4967.85" waitingTime="0.00" waitingCount="0" stopTime="0.00" timeLoss="7.83" rerouteNo="0" devices="tripinfo_CVToC.10 routing_CVToC.10 ssm_CVToC.10 toc_CVToC.10 driverstateCVToC.10" vType="vehLVOS597" speedFactor="0.99" vaporized=""/>
    <tripinfo id="CVToC.12" depart="33.70" departLane="entry_1" departPos="0.66" departSpeed="32.62" departDelay="3.00" arrival="179.30" arrivalLane="e0_1" arrivalPos="4800.00" arrivalSpeed="36.42" duration="145.60" routeLength="4999.34" waitingTime="0.00" waitingCount="0" stopTime="0.00" timeLoss="8.35" rerouteNo="0" devices="tripinfo_CVToC.12 routing_CVToC.12 ssm_CVToC.12 toc_CVToC.12 driverstateCVToC.12" vType="vehLVOS709" speedFactor="1.01" vaporized=""/>
    <tripinfo id="LV.6" depart="18.90" departLane="entry_1" departPos="57.08" departSpeed="31.11" departDelay="0.00" arrival="182.90" arrivalLane="e0_1" arrivalPos="4800.00" arrivalSpeed="31.11" duration="164.00" routeLength="4942.92" waitingTime="0.00" waitingCount="0" stopTime="0.00" timeLoss="5.08" rerouteNo="0" devices="tripinfo_LV.6 routing_LV.6 ssm_LV.6" vType="vehLVOS774" speedFactor="0.86" vaporized=""/>
    <tripinfo id="CAVToC.1" depart="11.20" departLane="entry_0" departPos="174.95" departSpeed="28.27" departDelay="0.60" arrival="183.70" arrivalLane="e0_0" arrivalPos="4800.00" arrivalSpeed="28.27" duration="172.50" routeLength="4825.05" waitingTime="0.00" waitingCount="0" stopTime="0.00" timeLoss="1.83" rerouteNo="0" devices="tripinfo_CAVToC.1 routing_CAVToC.1 ssm_CAVToC.1 toc_CAVToC.1 driverstateCAVToC.1" vType="vehLVOS103" speedFactor="0.78" vaporized=""/>
    <tripinfo id="LV.13" depart="39.30" departLane="entry_1" departPos="58.01" departSpeed="36.93" departDelay="1.50" arrival="184.10" arrivalLane="e0_1" arrivalPos="4800.00" arrivalSpeed="35.53" duration="144.80" routeLength="4941.99" waitingTime="0.00" waitingCount="0" stopTime="0.00" timeLoss="10.96" rerouteNo="0" devices="tripinfo_LV.13 routing_LV.13 ssm_LV.13" vType="vehLVOS81" speedFactor="1.02" vaporized=""/>
    <tripinfo id="CVToC.7" depart="27.30" departLane="entry_1" departPos="14.35" departSpeed="32.97" departDelay="4.90" arrival="185.30" arrivalLane="e0_0" arrivalPos="4800.00" arrivalSpeed="32.94" duration="158.00" routeLength="4985.65" waitingTime="0.00" waitingCount="0" stopTime="0.00" timeLoss="6.78" rerouteNo="0" devices="tripinfo_CVToC.7 routing_CVToC.7 ssm_CVToC.7 toc_CVToC.7 driverstateCVToC.7" vType="vehLVOS930" speedFactor="0.91" vaporized=""/>
    <tripinfo id="CAVToC.6" depart="40.70" departLane="entry_1" departPos="19.41" departSpeed="37.16" departDelay="7.10" arrival="186.30" arrivalLane="e0_1" arrivalPos="4800.00" arrivalSpeed="35.72" duration="145.60" routeLength="4980.59" waitingTime="0.00" waitingCount="0" stopTime="0.00" timeLoss="32.89" rerouteNo="0" devices="tripinfo_CAVToC.6 routing_CAVToC.6 ssm_CAVToC.6 toc_CAVToC.6 driverstateCAVToC.6" vType="vehLVOS299" speedFactor="1.22" vaporized=""/>
    <tripinfo id="CVToC.11" depart="31.30" departLane="entry_1" departPos="3.74" departSpeed="32.07" departDelay="1.20" arrival="187.50" arrivalLane="e0_0" arrivalPos="4800.00" arrivalSpeed="32.04" duration="156.20" routeLength="4996.26" waitingTime="0.00" waitingCount="0" stopTime="0.00" timeLoss="0.31" rerouteNo="0" devices="tripinfo_CVToC.11 routing_CVToC.11 ssm_CVToC.11 toc_CVToC.11 driverstateCVToC.11" vType="vehLVOS401" speedFactor="0.89" vaporized=""/>
    <tripinfo id="CVToC.14" depart="42.70" departLane="entry_1" departPos="14.44" departSpeed="36.34" departDelay="4.60" arrival="188.70" arrivalLane="e0_1" arrivalPos="4800.00" arrivalSpeed="36.45" duration="146.00" routeLength="4985.56" waitingTime="0.00" waitingCount="0" stopTime="0.00" timeLoss="11.78" rerouteNo="0" devices="tripinfo_CVToC.14 routing_CVToC.14 ssm_CVToC.14 toc_CVToC.14 driverstateCVToC.14" vType="vehLVOS479" speedFactor="1.03" vaporized=""/>
    <tripinfo id="LV.4" depart="45.70" departLane="entry_1" departPos="1.21" departSpeed="40.98" departDelay="27.80" arrival="191.40" arrivalLane="e0_1" arrivalPos="4800.00" arrivalSpeed="39.71" duration="145.70" routeLength="4998.79" waitingTime="0.00" waitingCount="0" stopTime="0.00" timeLoss="23.67" rerouteNo="0" devices="tripinfo_LV.4 routing_LV.4 ssm_LV.4" vType="vehLVOS720" speedFactor="1.13" vaporized=""/>
    <tripinfo id="LV.15" depart="46.10" departLane="entry_1" departPos="9.99" departSpeed="34.75" departDelay="3.80" arrival="195.30" arrivalLane="e0_0" arrivalPos="4800.00" arrivalSpeed="34.75" duration="149.20" routeLength="4990.01" waitingTime="0.00" waitingCount="0" stopTime="0.00" timeLoss="5.56" rerouteNo="0" devices="tripinfo_LV.15 routing_LV.15 ssm_LV.15" vType="vehLVOS180" speedFactor="0.96" vaporized=""/>
    <tripinfo id="LV.12" depart="34.90" departLane="entry_1" departPos="13.62" departSpeed="30.97" departDelay="0.40" arrival="196.30" arrivalLane="e0_0" arrivalPos="4800.00" arrivalSpeed="30.93" duration="161.40" routeLength="4986.38" waitingTime="0.00" waitingCount="0" stopTime="0.00" timeLoss="0.30" rerouteNo="0" devices="tripinfo_LV.12 routing_LV.12 ssm_LV.12" vType="vehLVOS625" speedFactor="0.86" vaporized=""/>
    <tripinfo id="CAVToC.11" depart="49.20" departLane="entry_1" departPos="31.82" departSpeed="35.45" departDelay="6.30" arrival="198.40" arrivalLane="e0_1" arrivalPos="4800.00" arrivalSpeed="40.72" duration="149.20" routeLength="4968.18" waitingTime="0.00" waitingCount="0" stopTime="0.00" timeLoss="27.11" rerouteNo="0" devices="tripinfo_CAVToC.11 routing_CAVToC.11 ssm_CAVToC.11 toc_CAVToC.11 driverstateCAVToC.11" vType="vehLVOS511" speedFactor="1.13" vaporized=""/>
    <tripinfo id="CVToC.17" depart="53.50" departLane="entry_1" departPos="6.00" departSpeed="33.69" departDelay="6.50" arrival="199.40" arrivalLane="e0_1" arrivalPos="4800.00" arrivalSpeed="39.20" duration="145.90" routeLength="4994.00" waitingTime="0.00" waitingCount="0" stopTime="0.00" timeLoss="18.54" rerouteNo="0" devices="tripinfo_CVToC.17 routing_CVToC.17 ssm_CVToC.17 toc_CVToC.17 driverstateCVToC.17" vType="vehLVOS223" speedFactor="1.09" vaporized=""/>
    <tripinfo id="CAVToC.13" depart="51.40" departLane="entry_1" departPos="35.52" departSpeed="34.55" departDelay="7.40" arrival="200.60" arrivalLane="e0_0" arrivalPos="4800.00" arrivalSpeed="34.51" duration="149.20" routeLength="4964.48" waitingTime="0.00" waitingCount="0" stopTime="0.00" timeLoss="5.50" rerouteNo="0" devices="tripinfo_CAVToC.13 routing_CAVToC.13 ssm_CAVToC.13 toc_CAVToC.13 driverstateCAVToC.13" vType="vehLVOS706" speedFactor="0.96" vaporized=""/>
    <tripinfo id="CAVToC.14" depart="52.30" departLane="entry_0" departPos="17.13" departSpeed="32.70" departDelay="7.40" arrival="200.70" arrivalLane="e0_1" arrivalPos="4800.00" arrivalSpeed="38.52" duration="148.40" routeLength="4982.87" waitingTime="0.00" waitingCount="0" stopTime="0.00" timeLoss="19.02" rerouteNo="0" devices="tripinfo_CAVToC.14 routing_CAVToC.14 ssm_CAVToC.14 toc_CAVToC.14 driverstateCAVToC.14" vType="vehLVOS922" speedFactor="1.07" vaporized=""/>
    <tripinfo id="CAVToC.15" depart="56.20" departLane="entry_1" departPos="15.81" departSpeed="33.15" departDelay="8.80" arrival="208.30" arrivalLane="e0_0" arrivalPos="4800.00" arrivalSpeed="35.91" duration="152.10" routeLength="4984.19" waitingTime="0.00" waitingCount="0" stopTime="0.00" timeLoss="13.34" rerouteNo="0" devices="tripinfo_CAVToC.15 routing_CAVToC.15 ssm_CAVToC.15 toc_CAVToC.15 driverstateCAVToC.15" vType="vehLVOS583" speedFactor="1.00" vaporized=""/>
    <tripinfo id="LV.17" depart="51.90" departLane="entry_1" departPos="40.60" departSpeed="33.20" departDelay="1.40" arrival="210.50" arrivalLane="e0_0" arrivalPos="4800.00" arrivalSpeed="33.17" duration="158.60" routeLength="4959.40" waitingTime="0.00" waitingCount="0" stopTime="0.00" timeLoss="9.21" rerouteNo="0" devices="tripinfo_LV.17 routing_LV.17 ssm_LV.17" vType="vehLVOS397" speedFactor="0.92" vaporized=""/>
    <tripinfo id="CVToC.19" depart="58.80" departLane="entry_1" departPos="27.15" departSpeed="32.28" departDelay="10.20" arrival="213.60" arrivalLane="e0_0" arrivalPos="4800.00" arrivalSpeed="33.36" duration="154.80" routeLength="4972.85" waitingTime="0.00" waitingCount="0" stopTime="0.00" timeLoss="5.75" rerouteNo="0" devices="tripinfo_CVToC.19 routing_CVToC.19 ssm_CVToC.19 toc_CVToC.19 driverstateCVToC.19" vType="vehLVOS341" speedFactor="0.92" vaporized=""/>
    <tripinfo id="LV.18" depart="61.80" departLane="entry_1" departPos="63.82" departSpeed="34.86" departDelay="11.00" arrival="214.50" arrivalLane="e0_1" arrivalPos="4800.00" arrivalSpeed="34.82" duration="152.70" routeLength="4936.18" waitingTime="0.00" waitingCount="0" stopTime="0.00" timeLoss="11.00" rerouteNo="0" devices="tripinfo_LV.18 routing_LV.18 ssm_LV.18" vType="vehLVOS769" speedFactor="0.97" vaporized=""/>
    <tripinfo id="LV.7" depart="20.10" departLane="entry_0" departPos="18.67" departSpeed="29.79" departDelay="0.30" arrival="222.20" arrivalLane="e0_0" arrivalPos="4800.00" arrivalSpeed="29.76" duration="202.10" routeLength="4981.33" waitingTime="0.00" waitingCount="0" stopTime="0.00" timeLoss="34.87" rerouteNo="0" devices="tripinfo_LV.7 routing_LV.7 ssm_LV.7" vType="vehLVOS513" speedFactor="0.82" vaporized=""/>
    <tripinfo id="CVToC.20" depart="62.00" departLane="entry_1" departPos="1.78" departSpeed="31.85" departDelay="10.20" arrival="222.70" arrivalLane="e0_1" arrivalPos="4800.00" arrivalSpeed="31.84" duration="160.70" routeLength="4998.22" waitingTime="0.00" waitingCount="0" stopTime="0.00" timeLoss="3.67" rerouteNo="0" devices="tripinfo_CVToC.20 routing_CVToC.20 ssm_CVToC.20 toc_CVToC.20 driverstateCVToC.20" vType="vehLVOS799" speedFactor="0.88" vaporized=""/>
    <tripinfo id="LV.11" depart="63.50" departLane="entry_0" departPos="3.83" departSpeed="47.54" departDelay="32.70" arrival="223.70" arrivalLane="e0_1" arrivalPos="4800.00" arrivalSpeed="33.23" duration="160.20" routeLength="4996.17" waitingTime="0.00" waitingCount="0" stopTime="0.00" timeLoss="55.09" rerouteNo="0" devices="tripinfo_LV.11 routing_LV.11 ssm_LV.11" vType="vehLVOS233" speedFactor="1.32" vaporized=""/>
    <tripinfo id="CAVToC.16" depart="67.70" departLane="entry_1" departPos="22.40" departSpeed="32.99" departDelay="13.80" arrival="225.30" arrivalLane="e0_0" arrivalPos="4800.00" arrivalSpeed="34.32" duration="157.60" routeLength="4977.60" waitingTime="0.00" waitingCount="0" stopTime="0.00" timeLoss="23.94" rerouteNo="0" devices="tripinfo_CAVToC.16 routing_CAVToC.16 ssm_CAVToC.16 toc_CAVToC.16 driverstateCAVToC.16" vType="vehLVOS412" speedFactor="1.03" vaporized=""/>
    <tripinfo id="CVToC.22" depart="69.60" departLane="entry_1" departPos="4.46" departSpeed="32.06" departDelay="12.00" arrival="226.80" arrivalLane="e0_1" arrivalPos="4800.00" arrivalSpeed="35.85" duration="157.20" routeLength="4995.54" waitingTime="0.00" waitingCount="0" stopTime="0.00" timeLoss="27.51" rerouteNo="0" devices="tripinfo_CVToC.22 routing_CVToC.22 ssm_CVToC.22 toc_CVToC.22 driverstateCVToC.22" vType="vehLVOS989" speedFactor="1.07" vaporized=""/>
    <tripinfo id="CAVToC.17" depart="72.10" departLane="entry_1" departPos="3.63" departSpeed="31.48" departDelay="15.40" arrival="229.20" arrivalLane="e0_1" arrivalPos="4800.00" arrivalSpeed="37.77" duration="157.10" routeLength="4996.37" waitingTime="0.00" waitingCount="0" stopTime="0.00" timeLoss="25.66" rerouteNo="0" devices="tripinfo_CAVToC.17 routing_CAVToC.17 ssm_CAVToC.17 toc_CAVToC.17 driverstateCAVToC.17" vType="vehLVOS456" speedFactor="1.05" vaporized=""/>
    <tripinfo id="CVToC.24" depart="76.60" departLane="entry_1" departPos="53.03" departSpeed="29.90" departDelay="16.30" arrival="231.50" arrivalLane="e0_1" arrivalPos="4800.00" arrivalSpeed="38.04" duration="154.90" routeLength="4946.97" waitingTime="0.00" waitingCount="0" stopTime="0.00" timeLoss="26.65" rerouteNo="0" devices="tripinfo_CVToC.24 routing_CVToC.24 ssm_CVToC.24 toc_CVToC.24 driverstateCVToC.24" vType="vehLVOS919" speedFactor="1.07" vaporized=""/>
    <tripinfo id="CAVToC.20" depart="78.10" departLane="entry_1" departPos="27.01" departSpeed="29.80" departDelay="17.00" arrival="233.10" arrivalLane="e0_0" arrivalPos="4800.00" arrivalSpeed="33.73" duration="155.00" routeLength="4972.99" waitingTime="0.00" waitingCount="0" stopTime="0.00" timeLoss="7.61" rerouteNo="0" devices="tripinfo_CAVToC.20 routing_CAVToC.20 ssm_CAVToC.20 toc_CAVToC.20 driverstateCAVToC.20" vType="vehLVOS621" speedFactor="0.93" vaporized=""/>
    <tripinfo id="CAVToC.21" depart="80.60" departLane="entry_1" departPos="24.57" departSpeed="29.88" departDelay="18.90" arrival="233.90" arrivalLane="e0_1" arrivalPos="4800.00" arrivalSpeed="34.52" duration="153.30" routeLength="4975.43" waitingTime="0.00" waitingCount="0" stopTime="0.00" timeLoss="9.15" rerouteNo="0" devices="tripinfo_CAVToC.21 routing_CAVToC.21 ssm_CAVToC.21 toc_CAVToC.21 driverstateCAVToC.21" vType="vehLVOS448" speedFactor="0.96" vaporized=""/>
    <tripinfo id="CAVToC.22" depart="86.70" departLane="entry_1" departPos="11.92" departSpeed="33.11" departDelay="20.30" arrival="235.30" arrivalLane="e0_1" arrivalPos="4800.00" arrivalSpeed="36.85" duration="148.60" routeLength="4988.08" waitingTime="0.00" waitingCount="0" stopTime="0.00" timeLoss="14.13" rerouteNo="0" devices="tripinfo_CAVToC.22 routing_CAVToC.22 ssm_CAVToC.22 toc_CAVToC.22 driverstateCAVToC.22" vType="vehLVOS17" speedFactor="1.03" vaporized=""/>
    <tripinfo id="LV.22" depart="89.20" departLane="entry_0" departPos="57.82" departSpeed="41.03" departDelay="26.00" arrival="237.10" arrivalLane="e0_1" arrivalPos="4800.00" arrivalSpeed="38.27" duration="147.90" routeLength="4942.18" waitingTime="0.00" waitingCount="0" stopTime="0.00" timeLoss="27.41" rerouteNo="0" devices="tripinfo_LV.22 routing_LV.22 ssm_LV.22" vType="vehLVOS974" speedFactor="1.14" vaporized=""/>
    <tripinfo id="LV.2" depart="10.20" departLane="entry_1" departPos="35.38" departSpeed="21.84" departDelay="0.00" arrival="237.80" arrivalLane="e0_0" arrivalPos="4800.00" arrivalSpeed="21.84" duration="227.60" routeLength="4964.62" waitingTime="0.00" waitingCount="0" stopTime="0.00" timeLoss="0.23" rerouteNo="0" devices="tripinfo_LV.2 routing_LV.2 ssm_LV.2" vType="vehLVOS719" speedFactor="0.60" vaporized=""/>
    <tripinfo id="CAVToC.23" depart="89.00" departLane="entry_1" departPos="8.47" departSpeed="32.29" departDelay="21.60" arrival="238.60" arrivalLane="e0_1" arrivalPos="4800.00" arrivalSpeed="35.95" duration="149.60" routeLength="4991.53" waitingTime="0.00" waitingCount="0" stopTime="0.00" timeLoss="10.82" rerouteNo="0" devices="tripinfo_CAVToC.23 routing_CAVToC.23 ssm_CAVToC.23 toc_CAVToC.23 driverstateCAVToC.23" vType="vehLVOS620" speedFactor="1.00" vaporized=""/>
    <tripinfo id="CVToC.4" depart="13.20" departLane="entry_0" departPos="73.48" departSpeed="29.74" departDelay="0.00" arrival="238.70" arrivalLane="e0_0" arrivalPos="4800.00" arrivalSpeed="23.50" duration="225.50" routeLength="4926.52" waitingTime="0.00" waitingCount="0" stopTime="0.00" timeLoss="89.58" rerouteNo="0" devices="tripinfo_CVToC.4 routing_CVToC.4 ssm_CVToC.4 toc_CVToC.4 driverstateCVToC.4" vType="vehLVOS911" speedFactor="1.00" vaporized=""/>
    <tripinfo id="CVToC.26" depart="91.80" departLane="entry_1" departPos="5.41" departSpeed="31.42" departDelay="24.20" arrival="239.80" arrivalLane="e0_1" arrivalPos="4800.00" arrivalSpeed="37.88" duration="148.00" routeLength="4994.59" waitingTime="0.00" waitingCount="0" stopTime="0.00" timeLoss="28.90" rerouteNo="0" devices="tripinfo_CVToC.26 routing_CVToC.26 ssm_CVToC.26 toc_CVToC.26 driverstateCVToC.26" vType="vehLVOS952" speedFactor="1.16" vaporized=""/>
    <tripinfo id="CVToC.6" depart="19.20" departLane="entry_0" departPos="7.97" departSpeed="31.10" departDelay="0.20" arrival="241.30" arrivalLane="e0_0" arrivalPos="4800.00" arrivalSpeed="25.17" duration="222.10" routeLength="4992.03" waitingTime="0.00" waitingCount="0" stopTime="0.00" timeLoss="61.56" rerouteNo="0" devices="tripinfo_CVToC.6 routing_CVToC.6 ssm_CVToC.6 toc_CVToC.6 driverstateCVToC.6" vType="vehLVOS345" speedFactor="0.86" vaporized=""/>
    <tripinfo id="CAVToC.4" depart="22.40" departLane="entry_0" departPos="12.17" departSpeed="28.64" departDelay="2.00" arrival="242.60" arrivalLane="e0_0" arrivalPos="4800.00" arrivalSpeed="26.00" duration="220.20" routeLength="4987.83" waitingTime="0.00" waitingCount="0" stopTime="0.00" timeLoss="68.88" rerouteNo="0" devices="tripinfo_CAVToC.4 routing_CAVToC.4 ssm_CAVToC.4 toc_CAVToC.4 driverstateCAVToC.4" vType="vehLVOS975" speedFactor="0.91" vaporized=""/>
    <tripinfo id="CVToC.27" depart="94.90" departLane="entry_1" departPos="10.97" departSpeed="30.24" departDelay="25.70" arrival="243.00" arrivalLane="e0_1" arrivalPos="4800.00" arrivalSpeed="39.16" duration="148.10" routeLength="4989.03" waitingTime="0.00" waitingCount="0" stopTime="0.00" timeLoss="29.20" rerouteNo="0" devices="tripinfo_CVToC.27 routing_CVToC.27 ssm_CVToC.27 toc_CVToC.27 driverstateCVToC.27" vType="vehLVOS699" speedFactor="1.16" vaporized=""/>
    <tripinfo id="CAVToC.5" depart="24.90" departLane="entry_0" departPos="4.53" departSpeed="29.23" departDelay="3.00" arrival="243.80" arrivalLane="e0_0" arrivalPos="4800.00" arrivalSpeed="27.82" duration="218.90" routeLength="4995.47" waitingTime="0.00" waitingCount="0" stopTime="0.00" timeLoss="75.54" rerouteNo="0" devices="tripinfo_CAVToC.5 routing_CAVToC.5 ssm_CAVToC.5 toc_CAVToC.5 driverstateCAVToC.5" vType="vehLVOS194" speedFactor="0.97" vaporized=""/>
    <tripinfo id="CVToC.9" depart="27.90" departLane="entry_0" departPos="2.11" departSpeed="29.85" departDelay="3.10" arrival="245.20" arrivalLane="e0_0" arrivalPos="4800.00" arrivalSpeed="29.21" duration="217.30" routeLength="4997.89" waitingTime="0.00" waitingCount="0" stopTime="0.00" timeLoss="91.14" rerouteNo="0" devices="tripinfo_CVToC.9 routing_CVToC.9 ssm_CVToC.9 toc_CVToC.9 driverstateCVToC.9" vType="vehLVOS45" speedFactor="1.10" vaporized=""/>
    <tripinfo id="CVToC.8" depart="31.00" departLane="entry_0" departPos="8.75" departSpeed="29.36" departDelay="7.70" arrival="247.70" arrivalLane="e0_0" arrivalPos="4800.00" arrivalSpeed="25.93" duration="216.70" routeLength="4991.25" waitingTime="0.00" waitingCount="0" stopTime="0.00" timeLoss="88.95" rerouteNo="0" devices="tripinfo_CVToC.8 routing_CVToC.8 ssm_CVToC.8 toc_CVToC.8 driverstateCVToC.8" vType="vehLVOS508" speedFactor="1.08" vaporized=""/>
    <tripinfo id="LV.23" depart="86.70" departLane="entry_1" departPos="87.68" departSpeed="32.57" departDelay="21.60" arrival="248.10" arrivalLane="e0_1" arrivalPos="4800.00" arrivalSpeed="32.46" duration="161.40" routeLength="4912.32" waitingTime="0.00" waitingCount="0" stopTime="0.00" timeLoss="10.54" rerouteNo="0" devices="tripinfo_LV.23 routing_LV.23 ssm_LV.23" vType="vehLVOS933" speedFactor="0.90" vaporized=""/>
    <tripinfo id="CVToC.13" depart="34.00" departLane="entry_0" departPos="25.93" departSpeed="27.70" departDelay="2.00" arrival="248.70" arrivalLane="e0_0" arrivalPos="4800.00" arrivalSpeed="27.24" duration="214.70" routeLength="4974.07" waitingTime="0.00" waitingCount="0" stopTime="0.00" timeLoss="52.01" rerouteNo="0" devices="tripinfo_CVToC.13 routing_CVToC.13 ssm_CVToC.13 toc_CVToC.13 driverstateCVToC.13" vType="vehLVOS496" speedFactor="0.85" vaporized=""/>
    <tripinfo id="CAVToC.7" depart="37.00" departLane="entry_0" departPos="24.42" departSpeed="27.43" departDelay="2.20" arrival="250.80" arrivalLane="e0_0" arrivalPos="4800.00" arrivalSpeed="27.67" duration="213.80" routeLength="4975.58" waitingTime="0.00" waitingCount="0" stopTime="0.00" timeLoss="83.19" rerouteNo="0" devices="tripinfo_CAVToC.7 routing_CAVToC.7 ssm_CAVToC.7 toc_CAVToC.7 driverstateCAVToC.7" vType="vehLVOS660" speedFactor="1.06" vaporized=""/>
    <tripinfo id="CVToC.15" depart="42.30" departLane="entry_0" departPos="96.91" departSpeed="29.41" departDelay="3.00" arrival="251.90" arrivalLane="e0_0" arrivalPos="4800.00" arrivalSpeed="29.26" duration="209.60" routeLength="4903.09" waitingTime="0.00" waitingCount="0" stopTime="0.00" timeLoss="68.30" rerouteNo="0" devices="tripinfo_CVToC.15 routing_CVToC.15 ssm_CVToC.15 toc_CVToC.15 driverstateCVToC.15" vType="vehLVOS976" speedFactor="0.96" vaporized=""/>
    <tripinfo id="CAVToC.25" depart="97.60" departLane="entry_1" departPos="12.41" departSpeed="28.94" departDelay="26.70" arrival="252.00" arrivalLane="e0_1" arrivalPos="4800.00" arrivalSpeed="34.90" duration="154.40" routeLength="4987.59" waitingTime="0.00" waitingCount="0" stopTime="0.00" timeLoss="11.48" rerouteNo="0" devices="tripinfo_CAVToC.25 routing_CAVToC.25 ssm_CAVToC.25 toc_CAVToC.25 driverstateCAVToC.25" vType="vehLVOS184" speedFactor="0.97" vaporized=""/>
    <tripinfo id="CAVToC.27" depart="104.50" departLane="entry_1" departPos="116.04" departSpeed="27.49" departDelay="31.60" arrival="253.20" arrivalLane="e0_1" arrivalPos="4800.00" arrivalSpeed="37.54" duration="148.70" routeLength="4883.96" waitingTime="0.00" waitingCount="0" stopTime="0.00" timeLoss="25.63" rerouteNo="0" devices="tripinfo_CAVToC.27 routing_CAVToC.27 ssm_CAVToC.27 toc_CAVToC.27 driverstateCAVToC.27" vType="vehLVOS188" speedFactor="1.10" vaporized=""/>
    <tripinfo id="CAVToC.8" depart="42.30" departLane="entry_0" departPos="21.24" departSpeed="30.02" departDelay="1.80" arrival="253.30" arrivalLane="e0_0" arrivalPos="4800.00" arrivalSpeed="30.21" duration="211.00" routeLength="4978.76" waitingTime="0.00" waitingCount="0" stopTime="0.00" timeLoss="65.99" rerouteNo="0" devices="tripinfo_CAVToC.8 routing_CAVToC.8 ssm_CAVToC.8 toc_CAVToC.8 driverstateCAVToC.8" vType="vehLVOS848" speedFactor="0.95" vaporized=""/>