<?xml version="1.0" encoding="UTF-8"?>

<!-- generated on Sat Jun 13 15:02:53 2020 by Eclipse SUMO Version v1_6_0+0553-a03471b
<configuration xmlns:xsi="http://www.w3.org/2001/XMLSchema-instance" xsi:noNamespaceSchemaLocation="http://sumo.dlr.de/xsd/sumoConfiguration.xsd">

    <input>
        <net-file value="scenario/UC5_1.net.xml"/>
        <route-files value="scenario/routes_trafficMix_0_trafficDemand_1_driverBehaviour_OS_seed_0.xml"/>
        <additional-files value="scenario/additionalsOutput_trafficMix_0_trafficDemand_1_driverBehaviour_OS_seed_0.xml,scenario/vTypesCAVToC_OS.add.xml,scenario/vTypesCVToC_OS.add.xml,scenario/vTypesLV_OS.add.xml,scenario/shapes.add.xml,scenario/view.add.xml"/>
    </input>

    <output>
        <tripinfo-output value="/home/noul_ar/workspace/tor-distribution/outputs/simulations/dnq_sample3015.zip_20200613-143151/tripinfo_5.xml"/>
    </output>

    <time>
        <step-length value="0.1"/>
    </time>

    <processing>
        <step-method.ballistic value="true"/>
        <ignore-route-errors value="true"/>
        <lanechange.duration value="2.5"/>
    </processing>

    <report>
        <no-step-log value="true"/>
    </report>

    <toc_device>
        <device.toc.ogNewTimeHeadway value="100"/>
        <device.toc.ogNewSpaceHeadway value="5"/>
        <device.toc.ogMaxDecel value="1"/>
        <device.toc.ogChangeRate value="1"/>
    </toc_device>

    <traci_server>
        <remote-port value="38063"/>
    </traci_server>

    <random_number>
        <seed value="1029"/>
    </random_number>

    <gui_only>
        <tracker-interval value="0.1"/>
    </gui_only>

</configuration>
-->

<tripinfos xmlns:xsi="http://www.w3.org/2001/XMLSchema-instance" xsi:noNamespaceSchemaLocation="http://sumo.dlr.de/xsd/tripinfo_file.xsd">
    <tripinfo id="CVToC.0" depart="6.40" departLane="entry_0" departPos="199.90" departSpeed="40.78" departDelay="0.00" arrival="124.30" arrivalLane="e0_0" arrivalPos="4800.00" arrivalSpeed="40.73" duration="117.90" routeLength="4800.10" waitingTime="0.00" waitingCount="0" stopTime="0.00" timeLoss="0.15" rerouteNo="0" devices="tripinfo_CVToC.0 routing_CVToC.0 ssm_CVToC.0 toc_CVToC.0 driverstateCVToC.0" vType="vehLVOS899" speedFactor="1.13" vaporized=""/>
    <tripinfo id="CVToC.1" depart="7.60" departLane="entry_1" departPos="199.90" departSpeed="33.37" departDelay="0.00" arrival="151.60" arrivalLane="e0_1" arrivalPos="4800.00" arrivalSpeed="33.29" duration="144.00" routeLength="4800.10" waitingTime="0.00" waitingCount="0" stopTime="0.00" timeLoss="0.16" rerouteNo="0" devices="tripinfo_CVToC.1 routing_CVToC.1 ssm_CVToC.1 toc_CVToC.1 driverstateCVToC.1" vType="vehLVOS940" speedFactor="0.92" vaporized=""/>
    <tripinfo id="CVToC.2" depart="8.10" departLane="entry_0" departPos="192.80" departSpeed="36.48" departDelay="0.00" arrival="152.30" arrivalLane="e0_0" arrivalPos="4800.00" arrivalSpeed="34.53" duration="144.20" routeLength="4807.20" waitingTime="0.00" waitingCount="0" stopTime="0.00" timeLoss="12.35" rerouteNo="0" devices="tripinfo_CVToC.2 routing_CVToC.2 ssm_CVToC.2 toc_CVToC.2 driverstateCVToC.2" vType="vehLVOS335" speedFactor="1.01" vaporized=""/>
    <tripinfo id="CVToC.3" depart="11.40" departLane="entry_1" departPos="199.90" departSpeed="35.18" departDelay="0.00" arrival="152.60" arrivalLane="e0_1" arrivalPos="4800.00" arrivalSpeed="34.46" duration="141.20" routeLength="4800.10" waitingTime="0.00" waitingCount="0" stopTime="0.00" timeLoss="4.66" rerouteNo="0" devices="tripinfo_CVToC.3 routing_CVToC.3 ssm_CVToC.3 toc_CVToC.3 driverstateCVToC.3" vType="vehLVOS495" speedFactor="0.97" vaporized=""/>
    <tripinfo id="CVToC.4" depart="11.60" departLane="entry_0" departPos="199.90" departSpeed="34.89" departDelay="0.00" arrival="153.20" arrivalLane="e0_0" arrivalPos="4800.00" arrivalSpeed="34.80" duration="141.60" routeLength="4800.10" waitingTime="0.00" waitingCount="0" stopTime="0.00" timeLoss="3.95" rerouteNo="0" devices="tripinfo_CVToC.4 routing_CVToC.4 ssm_CVToC.4 toc_CVToC.4 driverstateCVToC.4" vType="vehLVOS660" speedFactor="0.97" vaporized=""/>
    <tripinfo id="CAVToC.0" depart="11.90" departLane="entry_0" departPos="138.90" departSpeed="35.02" departDelay="0.00" arrival="154.90" arrivalLane="e0_0" arrivalPos="4800.00" arrivalSpeed="35.12" duration="143.00" routeLength="4861.10" waitingTime="0.00" waitingCount="0" stopTime="0.00" timeLoss="4.81" rerouteNo="0" devices="tripinfo_CAVToC.0 routing_CAVToC.0 ssm_CAVToC.0 toc_CAVToC.0 driverstateCAVToC.0" vType="vehLVOS675" speedFactor="0.97" vaporized=""/>
    <tripinfo id="CVToC.5" depart="12.80" departLane="entry_0" departPos="99.57" departSpeed="34.90" departDelay="0.00" arrival="155.50" arrivalLane="e0_1" arrivalPos="4800.00" arrivalSpeed="34.88" duration="142.70" routeLength="4900.43" waitingTime="0.00" waitingCount="0" stopTime="0.00" timeLoss="2.28" rerouteNo="0" devices="tripinfo_CVToC.5 routing_CVToC.5 ssm_CVToC.5 toc_CVToC.5 driverstateCVToC.5" vType="vehLVOS939" speedFactor="0.97" vaporized=""/>
    <tripinfo id="CAVToC.1" depart="14.70" departLane="entry_1" departPos="82.74" departSpeed="35.43" departDelay="0.00" arrival="156.30" arrivalLane="e0_1" arrivalPos="4800.00" arrivalSpeed="35.94" duration="141.60" routeLength="4917.26" waitingTime="0.00" waitingCount="0" stopTime="0.00" timeLoss="16.03" rerouteNo="0" devices="tripinfo_CAVToC.1 routing_CAVToC.1 ssm_CAVToC.1 toc_CAVToC.1 driverstateCAVToC.1" vType="vehLVOS358" speedFactor="1.08" vaporized=""/>
    <tripinfo id="CAVToC.2" depart="15.00" departLane="entry_0" departPos="86.03" departSpeed="35.69" departDelay="0.00" arrival="156.90" arrivalLane="e0_0" arrivalPos="4800.00" arrivalSpeed="36.88" duration="141.90" routeLength="4913.97" waitingTime="0.00" waitingCount="0" stopTime="0.00" timeLoss="23.69" rerouteNo="0" devices="tripinfo_CAVToC.2 routing_CAVToC.2 ssm_CAVToC.2 toc_CAVToC.2 driverstateCAVToC.2" vType="vehLVOS879" speedFactor="1.15" vaporized=""/>
    <tripinfo id="LV.0" depart="17.20" departLane="entry_0" departPos="8.97" departSpeed="43.56" departDelay="0.40" arrival="158.40" arrivalLane="e0_1" arrivalPos="4800.00" arrivalSpeed="38.13" duration="141.20" routeLength="4991.03" waitingTime="0.00" waitingCount="0" stopTime="0.00" timeLoss="26.55" rerouteNo="0" devices="tripinfo_LV.0 routing_LV.0 ssm_LV.0" vType="vehLVOS518" speedFactor="1.21" vaporized=""/>
    <tripinfo id="CAVToC.7" depart="22.00" departLane="entry_1" departPos="6.45" departSpeed="31.13" departDelay="0.10" arrival="159.90" arrivalLane="e0_1" arrivalPos="4800.00" arrivalSpeed="37.53" duration="137.90" routeLength="4993.55" waitingTime="0.00" waitingCount="0" stopTime="0.00" timeLoss="22.91" rerouteNo="0" devices="tripinfo_CAVToC.7 routing_CAVToC.7 ssm_CAVToC.7 toc_CAVToC.7 driverstateCAVToC.7" vType="vehLVOS224" speedFactor="1.20" vaporized=""/>
    <tripinfo id="CAVToC.3" depart="15.60" departLane="entry_1" departPos="39.44" departSpeed="34.09" departDelay="0.00" arrival="162.00" arrivalLane="e0_0" arrivalPos="4800.00" arrivalSpeed="34.06" duration="146.40" routeLength="4960.56" waitingTime="0.00" waitingCount="0" stopTime="0.00" timeLoss="0.81" rerouteNo="0" devices="tripinfo_CAVToC.3 routing_CAVToC.3 ssm_CAVToC.3 toc_CAVToC.3 driverstateCAVToC.3" vType="vehLVOS705" speedFactor="0.94" vaporized=""/>
    <tripinfo id="CAVToC.4" depart="17.20" departLane="entry_1" departPos="26.40" departSpeed="33.23" departDelay="0.00" arrival="167.40" arrivalLane="e0_0" arrivalPos="4800.00" arrivalSpeed="33.21" duration="150.20" routeLength="4973.60" waitingTime="0.00" waitingCount="0" stopTime="0.00" timeLoss="0.50" rerouteNo="0" devices="tripinfo_CAVToC.4 routing_CAVToC.4 ssm_CAVToC.4 toc_CAVToC.4 driverstateCAVToC.4" vType="vehLVOS162" speedFactor="0.92" vaporized=""/>
    <tripinfo id="CAVToC.6" depart="21.70" departLane="entry_0" departPos="52.53" departSpeed="26.77" departDelay="0.00" arrival="169.80" arrivalLane="e0_1" arrivalPos="4800.00" arrivalSpeed="38.96" duration="148.10" routeLength="4947.47" waitingTime="0.00" waitingCount="0" stopTime="0.00" timeLoss="21.18" rerouteNo="0" devices="tripinfo_CAVToC.6 routing_CAVToC.6 ssm_CAVToC.6 toc_CAVToC.6 driverstateCAVToC.6" vType="vehLVOS533" speedFactor="1.08" vaporized=""/>
    <tripinfo id="CAVToC.5" depart="20.90" departLane="entry_1" departPos="68.37" departSpeed="29.71" departDelay="0.00" arrival="173.60" arrivalLane="e0_0" arrivalPos="4800.00" arrivalSpeed="32.52" duration="152.70" routeLength="4931.63" waitingTime="0.00" waitingCount="0" stopTime="0.00" timeLoss="1.15" rerouteNo="0" devices="tripinfo_CAVToC.5 routing_CAVToC.5 ssm_CAVToC.5 toc_CAVToC.5 driverstateCAVToC.5" vType="vehLVOS907" speedFactor="0.90" vaporized=""/>
    <tripinfo id="CVToC.6" depart="24.10" departLane="entry_1" departPos="1.66" departSpeed="31.20" departDelay="1.00" arrival="178.90" arrivalLane="e0_0" arrivalPos="4800.00" arrivalSpeed="32.32" duration="154.80" routeLength="4998.34" waitingTime="0.00" waitingCount="0" stopTime="0.00" timeLoss="0.66" rerouteNo="0" devices="tripinfo_CVToC.6 routing_CVToC.6 ssm_CVToC.6 toc_CVToC.6 driverstateCVToC.6" vType="vehLVOS168" speedFactor="0.90" vaporized=""/>
    <tripinfo id="CAVToC.9" depart="29.40" departLane="entry_1" departPos="13.80" departSpeed="31.90" departDelay="0.50" arrival="180.30" arrivalLane="e0_1" arrivalPos="4800.00" arrivalSpeed="38.47" duration="150.90" routeLength="4986.20" waitingTime="0.00" waitingCount="0" stopTime="0.00" timeLoss="21.30" rerouteNo="0" devices="tripinfo_CAVToC.9 routing_CAVToC.9 ssm_CAVToC.9 toc_CAVToC.9 driverstateCAVToC.9" vType="vehLVOS750" speedFactor="1.07" vaporized=""/>
    <tripinfo id="LV.3" depart="22.80" departLane="entry_0" departPos="4.44" departSpeed="33.01" departDelay="0.20" arrival="181.40" arrivalLane="e0_0" arrivalPos="4800.00" arrivalSpeed="32.97" duration="158.60" routeLength="4995.56" waitingTime="0.00" waitingCount="0" stopTime="0.00" timeLoss="7.20" rerouteNo="0" devices="tripinfo_LV.3 routing_LV.3 ssm_LV.3" vType="vehLVOS870" speedFactor="0.91" vaporized=""/>
    <tripinfo id="CAVToC.8" depart="27.20" departLane="entry_1" departPos="25.78" departSpeed="31.25" departDelay="0.00" arrival="186.70" arrivalLane="e0_1" arrivalPos="4800.00" arrivalSpeed="33.15" duration="159.50" routeLength="4974.22" waitingTime="0.00" waitingCount="0" stopTime="0.00" timeLoss="9.41" rerouteNo="0" devices="tripinfo_CAVToC.8 routing_CAVToC.8 ssm_CAVToC.8 toc_CAVToC.8 driverstateCAVToC.8" vType="vehLVOS471" speedFactor="0.92" vaporized=""/>
    <tripinfo id="LV.2" depart="20.40" departLane="entry_1" departPos="125.15" departSpeed="29.31" departDelay="0.00" arrival="187.10" arrivalLane="e0_0" arrivalPos="4800.00" arrivalSpeed="29.23" duration="166.70" routeLength="4874.85" waitingTime="0.00" waitingCount="0" stopTime="0.00" timeLoss="0.31" rerouteNo="0" devices="tripinfo_LV.2 routing_LV.2 ssm_LV.2" vType="vehLVOS419" speedFactor="0.81" vaporized=""/>
    <tripinfo id="CAVToC.10" depart="33.90" departLane="entry_1" departPos="1.27" departSpeed="30.68" departDelay="4.10" arrival="189.50" arrivalLane="e0_1" arrivalPos="4800.00" arrivalSpeed="38.84" duration="155.60" routeLength="4998.73" waitingTime="0.00" waitingCount="0" stopTime="0.00" timeLoss="26.96" rerouteNo="0" devices="tripinfo_CAVToC.10 routing_CAVToC.10 ssm_CAVToC.10 toc_CAVToC.10 driverstateCAVToC.10" vType="vehLVOS998" speedFactor="1.08" vaporized=""/>
    <tripinfo id="CVToC.11" depart="37.20" departLane="entry_1" departPos="12.27" departSpeed="31.68" departDelay="5.00" arrival="192.40" arrivalLane="e0_1" arrivalPos="4800.00" arrivalSpeed="41.31" duration="155.20" routeLength="4987.73" waitingTime="0.00" waitingCount="0" stopTime="0.00" timeLoss="34.55" rerouteNo="0" devices="tripinfo_CVToC.11 routing_CVToC.11 ssm_CVToC.11 toc_CVToC.11 driverstateCVToC.11" vType="vehLVOS162" speedFactor="1.15" vaporized=""/>
    <tripinfo id="CAVToC.14" depart="39.70" departLane="entry_1" departPos="13.43" departSpeed="31.45" departDelay="3.20" arrival="198.50" arrivalLane="e0_0" arrivalPos="4800.00" arrivalSpeed="34.94" duration="158.80" routeLength="4986.57" waitingTime="0.00" waitingCount="0" stopTime="0.00" timeLoss="16.10" rerouteNo="0" devices="tripinfo_CAVToC.14 routing_CAVToC.14 ssm_CAVToC.14 toc_CAVToC.14 driverstateCAVToC.14" vType="vehLVOS903" speedFactor="0.97" vaporized=""/>
    <tripinfo id="CAVToC.11" depart="31.40" departLane="entry_1" departPos="14.84" departSpeed="29.60" departDelay="0.80" arrival="202.90" arrivalLane="e0_0" arrivalPos="4800.00" arrivalSpeed="29.60" duration="171.50" routeLength="4985.16" waitingTime="0.00" waitingCount="0" stopTime="0.00" timeLoss="3.02" rerouteNo="0" devices="tripinfo_CAVToC.11 routing_CAVToC.11 ssm_CAVToC.11 toc_CAVToC.11 driverstateCAVToC.11" vType="vehLVOS476" speedFactor="0.82" vaporized=""/>
    <tripinfo id="CVToC.14" depart="44.30" departLane="entry_1" departPos="3.12" departSpeed="25.69" departDelay="5.40" arrival="210.50" arrivalLane="e0_1" arrivalPos="4800.00" arrivalSpeed="36.00" duration="166.20" routeLength="4996.88" waitingTime="0.00" waitingCount="0" stopTime="0.00" timeLoss="27.59" rerouteNo="0" devices="tripinfo_CVToC.14 routing_CVToC.14 ssm_CVToC.14 toc_CVToC.14 driverstateCVToC.14" vType="vehLVOS706" speedFactor="1.00" vaporized=""/>
    <tripinfo id="CVToC.13" depart="47.70" departLane="entry_1" departPos="4.73" departSpeed="26.81" departDelay="12.00" arrival="211.60" arrivalLane="e0_1" arrivalPos="4800.00" arrivalSpeed="37.27" duration="163.90" routeLength="4995.27" waitingTime="0.00" waitingCount="0" stopTime="0.00" timeLoss="30.05" rerouteNo="0" devices="tripinfo_CVToC.13 routing_CVToC.13 ssm_CVToC.13 toc_CVToC.13 driverstateCVToC.13" vType="vehLVOS537" speedFactor="1.03" vaporized=""/>
    <tripinfo id="CAVToC.15" depart="41.40" departLane="entry_0" departPos="8.92" departSpeed="27.85" departDelay="3.40" arrival="211.60" arrivalLane="e0_0" arrivalPos="4800.00" arrivalSpeed="29.82" duration="170.20" routeLength="4991.08" waitingTime="0.00" waitingCount="0" stopTime="0.00" timeLoss="2.94" rerouteNo="0" devices="tripinfo_CAVToC.15 routing_CAVToC.15 ssm_CAVToC.15 toc_CAVToC.15 driverstateCAVToC.15" vType="vehLVOS676" speedFactor="0.83" vaporized=""/>
    <tripinfo id="CVToC.16" depart="51.10" departLane="entry_1" departPos="21.07" departSpeed="27.32" departDelay="10.70" arrival="214.70" arrivalLane="e0_1" arrivalPos="4800.00" arrivalSpeed="33.80" duration="163.60" routeLength="4978.93" waitingTime="0.00" waitingCount="0" stopTime="0.00" timeLoss="16.47" rerouteNo="0" devices="tripinfo_CVToC.16 routing_CVToC.16 ssm_CVToC.16 toc_CVToC.16 driverstateCVToC.16" vType="vehLVOS319" speedFactor="0.94" vaporized=""/>
    <tripinfo id="LV.1" depart="18.90" departLane="entry_0" departPos="71.15" departSpeed="25.27" departDelay="0.00" arrival="215.70" arrivalLane="e0_0" arrivalPos="4800.00" arrivalSpeed="25.24" duration="196.80" routeLength="4928.85" waitingTime="0.00" waitingCount="0" stopTime="0.00" timeLoss="1.69" rerouteNo="0" devices="tripinfo_LV.1 routing_LV.1 ssm_LV.1" vType="vehLVOS909" speedFactor="0.70" vaporized=""/>
    <tripinfo id="CVToC.17" depart="53.60" departLane="entry_1" departPos="3.75" departSpeed="28.32" departDelay="11.70" arrival="217.50" arrivalLane="e0_1" arrivalPos="4800.00" arrivalSpeed="38.33" duration="163.90" routeLength="4996.25" waitingTime="0.00" waitingCount="0" stopTime="0.00" timeLoss="33.63" rerouteNo="0" devices="tripinfo_CVToC.17 routing_CVToC.17 ssm_CVToC.17 toc_CVToC.17 driverstateCVToC.17" vType="vehLVOS265" speedFactor="1.06" vaporized=""/>
    <tripinfo id="CVToC.7" depart="25.60" departLane="entry_0" departPos="6.69" departSpeed="31.92" departDelay="1.10" arrival="218.80" arrivalLane="e0_0" arrivalPos="4800.00" arrivalSpeed="30.67" duration="193.20" routeLength="4993.31" waitingTime="0.00" waitingCount="0" stopTime="0.00" timeLoss="71.75" rerouteNo="0" devices="tripinfo_CVToC.7 routing_CVToC.7 ssm_CVToC.7 toc_CVToC.7 driverstateCVToC.7" vType="vehLVOS534" speedFactor="1.14" vaporized=""/>
    <tripinfo id="CAVToC.16" depart="56.40" departLane="entry_1" departPos="5.83" departSpeed="28.71" departDelay="7.30" arrival="218.80" arrivalLane="e0_1" arrivalPos="4800.00" arrivalSpeed="34.37" duration="162.40" routeLength="4994.17" waitingTime="0.00" waitingCount="0" stopTime="0.00" timeLoss="17.12" rerouteNo="0" devices="tripinfo_CAVToC.16 routing_CAVToC.16 ssm_CAVToC.16 toc_CAVToC.16 driverstateCAVToC.16" vType="vehLVOS137" speedFactor="0.95" vaporized=""/>
    <tripinfo id="CVToC.8" depart="28.10" departLane="entry_0" departPos="0.65" departSpeed="29.08" departDelay="0.40" arrival="220.20" arrivalLane="e0_0" arrivalPos="4800.00" arrivalSpeed="31.67" duration="192.10" routeLength="4999.35" waitingTime="0.00" waitingCount="0" stopTime="0.00" timeLoss="56.65" rerouteNo="0" devices="tripinfo_CVToC.8 routing_CVToC.8 ssm_CVToC.8 toc_CVToC.8 driverstateCVToC.8" vType="vehLVOS255" speedFactor="1.02" vaporized=""/>
    <tripinfo id="CVToC.23" depart="59.80" departLane="entry_1" departPos="15.65" departSpeed="29.38" departDelay="6.30" arrival="220.60" arrivalLane="e0_1" arrivalPos="4800.00" arrivalSpeed="36.90" duration="160.80" routeLength="4984.35" waitingTime="0.00" waitingCount="0" stopTime="0.00" timeLoss="30.56" rerouteNo="0" devices="tripinfo_CVToC.23 routing_CVToC.23 ssm_CVToC.23 toc_CVToC.23 driverstateCVToC.23" vType="vehLVOS940" speedFactor="1.06" vaporized=""/>
    <tripinfo id="CVToC.9" depart="30.90" departLane="entry_0" departPos="4.93" departSpeed="28.43" departDelay="1.50" arrival="222.10" arrivalLane="e0_0" arrivalPos="4800.00" arrivalSpeed="33.75" duration="191.20" routeLength="4995.07" waitingTime="0.00" waitingCount="0" stopTime="0.00" timeLoss="43.54" rerouteNo="0" devices="tripinfo_CVToC.9 routing_CVToC.9 ssm_CVToC.9 toc_CVToC.9 driverstateCVToC.9" vType="vehLVOS158" speedFactor="0.94" vaporized=""/>
    <tripinfo id="CVToC.20" depart="48.10" departLane="entry_0" departPos="25.82" departSpeed="26.42" departDelay="1.10" arrival="223.00" arrivalLane="e0_1" arrivalPos="4800.00" arrivalSpeed="36.54" duration="174.90" routeLength="4974.18" waitingTime="0.00" waitingCount="0" stopTime="0.00" timeLoss="38.91" rerouteNo="0" devices="tripinfo_CVToC.20 routing_CVToC.20 ssm_CVToC.20 toc_CVToC.20 driverstateCVToC.20" vType="vehLVOS82" speedFactor="1.01" vaporized=""/>
    <tripinfo id="CVToC.10" depart="33.50" departLane="entry_0" departPos="11.33" departSpeed="28.65" departDelay="2.70" arrival="223.90" arrivalLane="e0_0" arrivalPos="4800.00" arrivalSpeed="30.06" duration="190.40" routeLength="4988.67" waitingTime="0.00" waitingCount="0" stopTime="0.00" timeLoss="24.41" rerouteNo="0" devices="tripinfo_CVToC.10 routing_CVToC.10 ssm_CVToC.10 toc_CVToC.10 driverstateCVToC.10" vType="vehLVOS735" speedFactor="0.83" vaporized=""/>
    <tripinfo id="CVToC.15" depart="44.10" departLane="entry_0" departPos="2.57" departSpeed="27.55" departDelay="4.90" arrival="224.20" arrivalLane="e0_1" arrivalPos="4800.00" arrivalSpeed="35.80" duration="180.10" routeLength="4997.43" waitingTime="0.00" waitingCount="0" stopTime="0.00" timeLoss="40.85" rerouteNo="0" devices="tripinfo_CVToC.15 routing_CVToC.15 ssm_CVToC.15 toc_CVToC.15 driverstateCVToC.15" vType="vehLVOS96" speedFactor="0.99" vaporized=""/>
    <tripinfo id="CVToC.12" depart="38.90" departLane="entry_0" departPos="1.38" departSpeed="28.57" departDelay="4.70" arrival="226.70" arrivalLane="e0_1" arrivalPos="4800.00" arrivalSpeed="35.53" duration="187.80" routeLength="4998.62" waitingTime="0.00" waitingCount="0" stopTime="0.00" timeLoss="47.49" rerouteNo="0" devices="tripinfo_CVToC.12 routing_CVToC.12 ssm_CVToC.12 toc_CVToC.12 driverstateCVToC.12" vType="vehLVOS297" speedFactor="0.99" vaporized=""/>
    <tripinfo id="CAVToC.12" depart="36.50" departLane="entry_0" departPos="11.47" departSpeed="28.55" departDelay="4.10" arrival="227.40" arrivalLane="e0_0" arrivalPos="4800.00" arrivalSpeed="37.76" duration="190.90" routeLength="4988.53" waitingTime="0.00" waitingCount="0" stopTime="0.00" timeLoss="64.09" rerouteNo="0" devices="tripinfo_CAVToC.12 routing_CAVToC.12 ssm_CAVToC.12 toc_CAVToC.12 driverstateCAVToC.12" vType="vehLVOS472" speedFactor="1.09" vaporized=""/>
    <tripinfo id="LV.5" depart="66.70" departLane="entry_1" departPos="5.10" departSpeed="41.37" departDelay="32.90" arrival="236.30" arrivalLane="e0_1" arrivalPos="4800.00" arrivalSpeed="41.30" duration="169.60" routeLength="4994.90" waitingTime="0.00" waitingCount="0" stopTime="0.00" timeLoss="48.85" rerouteNo="0" devices="tripinfo_LV.5 routing_LV.5 ssm_LV.5" vType="vehLVOS315" speedFactor="1.15" vaporized=""/>
    <tripinfo id="LV.6" depart="67.90" departLane="entry_1" departPos="2.20" departSpeed="41.50" departDelay="12.20" arrival="237.30" arrivalLane="e0_1" arrivalPos="4800.00" arrivalSpeed="41.43" duration="169.40" routeLength="4997.80" waitingTime="0.00" waitingCount="0" stopTime="0.00" timeLoss="48.94" rerouteNo="0" devices="tripinfo_LV.6 routing_LV.6 ssm_LV.6" vType="vehLVOS507" speedFactor="1.15" vaporized=""/>
    <tripinfo id="CVToC.26" depart="70.70" departLane="entry_1" departPos="17.86" departSpeed="37.34" departDelay="3.80" arrival="238.40" arrivalLane="e0_1" arrivalPos="4800.00" arrivalSpeed="43.29" duration="167.70" routeLength="4982.14" waitingTime="0.00" waitingCount="0" stopTime="0.00" timeLoss="58.45" rerouteNo="0" devices="tripinfo_CVToC.26 routing_CVToC.26 ssm_CVToC.26 toc_CVToC.26 driverstateCVToC.26" vType="vehLVOS525" speedFactor="1.26" vaporized=""/>
    <tripinfo id="CAVToC.18" depart="61.50" departLane="entry_1" departPos="5.78" departSpeed="28.60" departDelay="4.80" arrival="240.50" arrivalLane="e0_0" arrivalPos="4800.00" arrivalSpeed="28.58" duration="179.00" routeLength="4994.22" waitingTime="0.00" waitingCount="0" stopTime="0.00" timeLoss="4.35" rerouteNo="0" devices="tripinfo_CAVToC.18 routing_CAVToC.18 ssm_CAVToC.18 toc_CAVToC.18 driverstateCAVToC.18" vType="vehLVOS333" speedFactor="0.79" vaporized=""/>
    <tripinfo id="LV.4" depart="70.90" departLane="entry_1" departPos="2.63" departSpeed="36.28" departDelay="40.20" arrival="242.90" arrivalLane="e0_1" arrivalPos="4800.00" arrivalSpeed="36.22" duration="172.00" routeLength="4997.37" waitingTime="0.00" waitingCount="0" stopTime="0.00" timeLoss="34.26" rerouteNo="0" devices="tripinfo_LV.4 routing_LV.4 ssm_LV.4" vType="vehLVOS504" speedFactor="1.00" vaporized=""/>
    <tripinfo id="CAVToC.21" depart="73.40" departLane="entry_1" departPos="1.19" departSpeed="35.83" departDelay="3.60" arrival="244.90" arrivalLane="e0_1" arrivalPos="4800.00" arrivalSpeed="37.29" duration="171.50" routeLength="4998.81" waitingTime="0.00" waitingCount="0" stopTime="0.00" timeLoss="53.11" rerouteNo="0" devices="tripinfo_CAVToC.21 routing_CAVToC.21 ssm_CAVToC.21 toc_CAVToC.21 driverstateCAVToC.21" vType="vehLVOS972" speedFactor="1.17" vaporized=""/>
    <tripinfo id="CAVToC.13" depart="41.10" departLane="entry_1" departPos="2.87" departSpeed="24.43" departDelay="4.70" arrival="246.00" arrivalLane="e0_0" arrivalPos="4800.00" arrivalSpeed="24.33" duration="204.90" routeLength="4997.13" waitingTime="0.00" waitingCount="0" stopTime="0.00" timeLoss="0.35" rerouteNo="0" devices="tripinfo_CAVToC.13 routing_CAVToC.13 ssm_CAVToC.13 toc_CAVToC.13 driverstateCAVToC.13" vType="vehLVOS253" speedFactor="0.68" vaporized=""/>
    <tripinfo id="CVToC.27" depart="75.60" departLane="entry_1" departPos="4.66" departSpeed="34.86" departDelay="2.00" arrival="246.10" arrivalLane="e0_1" arrivalPos="4800.00" arrivalSpeed="34.92" duration="170.50" routeLength="4995.34" waitingTime="0.00" waitingCount="0" stopTime="0.00" timeLoss="27.49" rerouteNo="0" devices="tripinfo_CVToC.27 routing_CVToC.27 ssm_CVToC.27 toc_CVToC.27 driverstateCVToC.27" vType="vehLVOS969" speedFactor="0.97" vaporized=""/>
    <tripinfo id="CVToC.18" depart="50.20" departLane="entry_0" departPos="5.30" departSpeed="27.15" departDelay="6.90" arrival="248.50" arrivalLane="e0_0" arrivalPos="4800.00" arrivalSpeed="30.48" duration="198.30" routeLength="4994.70" waitingTime="0.00" waitingCount="0" stopTime="0.00" timeLoss="53.87" rerouteNo="0" devices="tripinfo_CVToC.18 routing_CVToC.18 ssm_CVToC.18 toc_CVToC.18 driverstateCVToC.18" vType="vehLVOS265" speedFactor="0.96" vaporized=""/>
    <tripinfo id="CAVToC.24" depart="78.00" departLane="entry_1" departPos="10.37" departSpeed="34.91" departDelay="4.40" arrival="248.90" arrivalLane="e0_1" arrivalPos="4800.00" arrivalSpeed="36.57" duration="170.90" routeLength="4989.63" waitingTime="0.00" waitingCount="0" stopTime="0.00" timeLoss="34.54" rerouteNo="0" devices="tripinfo_CAVToC.24 routing_CAVToC.24 ssm_CAVToC.24 toc_CAVToC.24 driverstateCAVToC.24" vType="vehLVOS217" speedFactor="1.01" vaporized=""/>
    <tripinfo id="CVToC.21" depart="54.10" departLane="entry_0" departPos="35.65" departSpeed="27.53" departDelay="4.90" arrival="249.60" arrivalLane="e0_0" arrivalPos="4800.00" arrivalSpeed="30.03" duration="195.50" routeLength="4964.35" waitingTime="0.00" waitingCount="0" stopTime="0.00" timeLoss="51.59" rerouteNo="0" devices="tripinfo_CVToC.21 routing_CVToC.21 ssm_CVToC.21 toc_CVToC.21 driverstateCVToC.21" vType="vehLVOS432" speedFactor="0.96" vaporized=""/>
    <tripinfo id="CAVToC.28" depart="80.30" departLane="entry_1" departPos="19.19" departSpeed="34.69" departDelay="3.40" arrival="250.30" arrivalLane="e0_1" arrivalPos="4800.00" arrivalSpeed="34.99" duration="170.00" routeLength="4980.81" waitingTime="0.00" waitingCount="0" stopTime="0.00" timeLoss="27.63" rerouteNo="0" devices="tripinfo_CAVToC.28 routing_CAVToC.28 ssm_CAVToC.28 toc_CAVToC.28 driverstateCAVToC.28" vType="vehLVOS72" speedFactor="0.97" vaporized=""/>
    <tripinfo id="CAVToC.27" depart="83.30" departLane="entry_1" departPos="42.84" departSpeed="34.11" departDelay="6.70" arrival="251.60" arrivalLane="e0_1" arrivalPos="4800.00" arrivalSpeed="35.64" duration="168.30" routeLength="4957.16" waitingTime="0.00" waitingCount="0" stopTime="0.00" timeLoss="29.31" rerouteNo="0" devices="tripinfo_CAVToC.27 routing_CAVToC.27 ssm_CAVToC.27 toc_CAVToC.27 driverstateCAVToC.27" vType="vehLVOS44" speedFactor="0.99" vaporized=""/>
    <tripinfo id="CVToC.19" depart="55.90" departLane="entry_0" departPos="1.27" departSpeed="28.40" departDelay="9.90" arrival="252.40" arrivalLane="e0_0" arrivalPos="4800.00" arrivalSpeed="30.75" duration="196.50" routeLength="4998.73" waitingTime="0.00" waitingCount="0" stopTime="0.00" timeLoss="60.34" rerouteNo="0" devices="tripinfo_CVToC.19 routing_CVToC.19 ssm_CVToC.19 toc_CVToC.19 driverstateCVToC.19" vType="vehLVOS443" speedFactor="1.02" vaporized=""/>
    <tripinfo id="CVToC.22" depart="59.20" departLane="entry_0" departPos="6.23" departSpeed="29.35" departDelay="7.60" arrival="254.10" arrivalLane="e0_0" arrivalPos="4800.00" arrivalSpeed="31.32" duration="194.90" routeLength="4993.77" waitingTime="0.00" waitingCount="0" stopTime="0.00" timeLoss="75.99" rerouteNo="0" devices="tripinfo_CVToC.22 routing_CVToC.22 ssm_CVToC.22 toc_CVToC.22 driverstateCVToC.22" vType="vehLVOS804" speedFactor="1.16" vaporized=""/>
    <tripinfo id="CVToC.29" depart="84.90" departLane="entry_1" departPos="19.74" departSpeed="34.18" departDelay="7.10" arrival="255.40" arrivalLane="e0_1" arrivalPos="4800.00" arrivalSpeed="37.46" duration="170.50" routeLength="4980.26" waitingTime="0.00" waitingCount="0" stopTime="0.00" timeLoss="37.54" rerouteNo="0" devices="tripinfo_CVToC.29 routing_CVToC.29 ssm_CVToC.29 toc_CVToC.29 driverstateCVToC.29" vType="vehLVOS302" speedFactor="1.04" vaporized=""/>
    <tripinfo id="LV.7" depart="59.60" departLane="entry_0" departPos="7.03" departSpeed="26.42" departDelay="3.80" arrival="255.80" arrivalLane="e0_0" arrivalPos="4800.00" arrivalSpeed="26.39" duration="196.20" routeLength="4992.97" waitingTime="0.00" waitingCount="0" stopTime="0.00" timeLoss="7.19" rerouteNo="0" devices="tripinfo_LV.7 routing_LV.7 ssm_LV.7" vType="vehLVOS24" speedFactor="0.73" vaporized=""/>
    <tripinfo id="CVToC.28" depart="88.20" departLane="entry_1" departPos="49.88" departSpeed="33.58" departDelay="11.10" arrival="256.80" arrivalLane="e0_1" arrivalPos="4800.00" arrivalSpeed="36.68" duration="168.60" routeLength="4950.12" waitingTime="0.00" waitingCount="0" stopTime="0.00" timeLoss="33.71" rerouteNo="0" devices="tripinfo_CVToC.28 routing_CVToC.28 ssm_CVToC.28 toc_CVToC.28 driverstateCVToC.28" vType="vehLVOS355" speedFactor="1.02" vaporized=""/>
    <tripinfo id="CAVToC.17" depart="62.50" departLane="entry_0" departPos="7.57" departSpeed="27.32" departDelay="8.80" arrival="257.70" arrivalLane="e0_0" arrivalPos="4800.00" arrivalSpeed="28.93" duration="195.20" routeLength="4992.43" waitingTime="0.00" waitingCount="0" stopTime="0.00" timeLoss="49.94" rerouteNo="0" devices="tripinfo_CAVToC.17 routing_CAVToC.17 ssm_CAVToC.17 toc_CAVToC.17 driverstateCAVToC.17" vType="vehLVOS557" speedFactor="0.95" vaporized=""/>
    <tripinfo id="CAVToC.32" depart="89.30" departLane="entry_1" departPos="16.69" departSpeed="31.69" departDelay="10.40" arrival="259.50" arrivalLane="e0_1" arrivalPos="4800.00" arrivalSpeed="31.66" duration="170.20" routeLength="4983.31" waitingTime="0.00" waitingCount="0" stopTime="0.00" timeLoss="12.90" rerouteNo="0" devices="tripinfo_CAVToC.32 routing_CAVToC.32 ssm_CAVToC.32 toc_CAVToC.32 driverstateCAVToC.32" vType="vehLVOS346" speedFactor="0.88" vaporized=""/>
    <tripinfo id="CAVToC.19" depart="66.50" departLane="entry_0" departPos="21.35" departSpeed="27.31" departDelay="9.60" arrival="260.20" arrivalLane="e0_0" arrivalPos="4800.00" arrivalSpeed="29.11" duration="193.70" routeLength="4978.65" waitingTime="0.00" waitingCount="0" stopTime="0.00" timeLoss="70.48" rerouteNo="0" devices="tripinfo_CAVToC.19 routing_CAVToC.19 ssm_CAVToC.19 toc_CAVToC.19 driverstateCAVToC.19" vType="vehLVOS479" speedFactor="1.12" vaporized=""/>