<?xml version="1.0" encoding="UTF-8"?>

<!-- generated on Sat Jun 13 15:24:59 2020 by Eclipse SUMO Version v1_6_0+0553-a03471b
<configuration xmlns:xsi="http://www.w3.org/2001/XMLSchema-instance" xsi:noNamespaceSchemaLocation="http://sumo.dlr.de/xsd/sumoConfiguration.xsd">

    <input>
        <net-file value="scenario/UC5_1.net.xml"/>
        <route-files value="scenario/routes_trafficMix_0_trafficDemand_1_driverBehaviour_OS_seed_0.xml"/>
        <additional-files value="scenario/additionalsOutput_trafficMix_0_trafficDemand_1_driverBehaviour_OS_seed_0.xml,scenario/vTypesCAVToC_OS.add.xml,scenario/vTypesCVToC_OS.add.xml,scenario/vTypesLV_OS.add.xml,scenario/shapes.add.xml,scenario/view.add.xml"/>
    </input>

    <output>
        <tripinfo-output value="/home/noul_ar/workspace/tor-distribution/outputs/simulations/dnq_sample3015.zip_20200613-143151/tripinfo_8.xml"/>
    </output>

    <time>
        <step-length value="0.1"/>
    </time>

    <processing>
        <step-method.ballistic value="true"/>
        <ignore-route-errors value="true"/>
        <lanechange.duration value="2.5"/>
    </processing>

    <report>
        <no-step-log value="true"/>
    </report>

    <toc_device>
        <device.toc.ogNewTimeHeadway value="100"/>
        <device.toc.ogNewSpaceHeadway value="5"/>
        <device.toc.ogMaxDecel value="1"/>
        <device.toc.ogChangeRate value="1"/>
    </toc_device>

    <traci_server>
        <remote-port value="56813"/>
    </traci_server>

    <random_number>
        <seed value="1032"/>
    </random_number>

    <gui_only>
        <tracker-interval value="0.1"/>
    </gui_only>

</configuration>
-->

<tripinfos xmlns:xsi="http://www.w3.org/2001/XMLSchema-instance" xsi:noNamespaceSchemaLocation="http://sumo.dlr.de/xsd/tripinfo_file.xsd">
    <tripinfo id="LV.0" depart="2.40" departLane="entry_1" departPos="126.61" departSpeed="41.64" departDelay="0.00" arrival="122.20" arrivalLane="e0_1" arrivalPos="4800.00" arrivalSpeed="41.63" duration="119.80" routeLength="4873.39" waitingTime="0.00" waitingCount="0" stopTime="0.00" timeLoss="2.67" rerouteNo="0" devices="tripinfo_LV.0 routing_LV.0 ssm_LV.0" vType="vehLVOS594" speedFactor="1.15" vaporized=""/>
    <tripinfo id="CAVToC.1" depart="1.90" departLane="entry_1" departPos="199.90" departSpeed="39.24" departDelay="0.00" arrival="124.30" arrivalLane="e0_0" arrivalPos="4800.00" arrivalSpeed="39.21" duration="122.40" routeLength="4800.10" waitingTime="0.00" waitingCount="0" stopTime="0.00" timeLoss="0.06" rerouteNo="0" devices="tripinfo_CAVToC.1 routing_CAVToC.1 ssm_CAVToC.1 toc_CAVToC.1 driverstateCAVToC.1" vType="vehLVOS570" speedFactor="1.09" vaporized=""/>
    <tripinfo id="CVToC.1" depart="4.00" departLane="entry_1" departPos="111.63" departSpeed="36.44" departDelay="0.00" arrival="130.90" arrivalLane="e0_1" arrivalPos="4800.00" arrivalSpeed="38.57" duration="126.90" routeLength="4888.37" waitingTime="0.00" waitingCount="0" stopTime="0.00" timeLoss="0.51" rerouteNo="0" devices="tripinfo_CVToC.1 routing_CVToC.1 ssm_CVToC.1 toc_CVToC.1 driverstateCVToC.1" vType="vehLVOS974" speedFactor="1.07" vaporized=""/>
    <tripinfo id="CAVToC.0" depart="0.10" departLane="entry_0" departPos="199.90" departSpeed="36.04" departDelay="0.00" arrival="133.40" arrivalLane="e0_0" arrivalPos="4800.00" arrivalSpeed="36.03" duration="133.30" routeLength="4800.10" waitingTime="0.00" waitingCount="0" stopTime="0.00" timeLoss="0.01" rerouteNo="0" devices="tripinfo_CAVToC.0 routing_CAVToC.0 ssm_CAVToC.0 toc_CAVToC.0 driverstateCAVToC.0" vType="vehLVOS610" speedFactor="1.00" vaporized=""/>
    <tripinfo id="CVToC.0" depart="1.80" departLane="entry_0" departPos="182.87" departSpeed="36.26" departDelay="0.00" arrival="134.50" arrivalLane="e0_1" arrivalPos="4800.00" arrivalSpeed="37.18" duration="132.70" routeLength="4817.13" waitingTime="0.00" waitingCount="0" stopTime="0.00" timeLoss="3.19" rerouteNo="0" devices="tripinfo_CVToC.0 routing_CVToC.0 ssm_CVToC.0 toc_CVToC.0 driverstateCVToC.0" vType="vehLVOS323" speedFactor="1.03" vaporized=""/>
    <tripinfo id="LV.1" depart="2.90" departLane="entry_0" departPos="197.62" departSpeed="35.57" departDelay="0.00" arrival="138.10" arrivalLane="e0_0" arrivalPos="4800.00" arrivalSpeed="35.55" duration="135.20" routeLength="4802.38" waitingTime="0.00" waitingCount="0" stopTime="0.00" timeLoss="0.17" rerouteNo="0" devices="tripinfo_LV.1 routing_LV.1 ssm_LV.1" vType="vehLVOS125" speedFactor="0.99" vaporized=""/>
    <tripinfo id="CAVToC.4" depart="6.80" departLane="entry_1" departPos="136.84" departSpeed="37.32" departDelay="0.00" arrival="138.40" arrivalLane="e0_1" arrivalPos="4800.00" arrivalSpeed="37.26" duration="131.60" routeLength="4863.16" waitingTime="0.00" waitingCount="0" stopTime="0.00" timeLoss="1.26" rerouteNo="0" devices="tripinfo_CAVToC.4 routing_CAVToC.4 ssm_CAVToC.4 toc_CAVToC.4 driverstateCAVToC.4" vType="vehLVOS598" speedFactor="1.03" vaporized=""/>
    <tripinfo id="CAVToC.2" depart="3.20" departLane="entry_0" departPos="121.08" departSpeed="36.18" departDelay="0.00" arrival="139.50" arrivalLane="e0_0" arrivalPos="4800.00" arrivalSpeed="35.42" duration="136.30" routeLength="4878.92" waitingTime="0.00" waitingCount="0" stopTime="0.00" timeLoss="19.84" rerouteNo="0" devices="tripinfo_CAVToC.2 routing_CAVToC.2 ssm_CAVToC.2 toc_CAVToC.2 driverstateCAVToC.2" vType="vehLVOS439" speedFactor="1.16" vaporized=""/>
    <tripinfo id="LV.2" depart="8.30" departLane="entry_1" departPos="70.26" departSpeed="39.63" departDelay="0.10" arrival="140.10" arrivalLane="e0_1" arrivalPos="4800.00" arrivalSpeed="39.60" duration="131.80" routeLength="4929.74" waitingTime="0.00" waitingCount="0" stopTime="0.00" timeLoss="7.33" rerouteNo="0" devices="tripinfo_LV.2 routing_LV.2 ssm_LV.2" vType="vehLVOS984" speedFactor="1.10" vaporized=""/>
    <tripinfo id="CVToC.3" depart="10.00" departLane="entry_1" departPos="61.00" departSpeed="35.46" departDelay="0.00" arrival="149.60" arrivalLane="e0_1" arrivalPos="4800.00" arrivalSpeed="35.35" duration="139.60" routeLength="4939.00" waitingTime="0.00" waitingCount="0" stopTime="0.00" timeLoss="0.26" rerouteNo="0" devices="tripinfo_CVToC.3 routing_CVToC.3 ssm_CVToC.3 toc_CVToC.3 driverstateCVToC.3" vType="vehLVOS15" speedFactor="0.98" vaporized=""/>
    <tripinfo id="CAVToC.3" depart="4.20" departLane="entry_0" departPos="85.67" departSpeed="33.73" departDelay="0.00" arrival="152.10" arrivalLane="e0_0" arrivalPos="4800.00" arrivalSpeed="33.64" duration="147.90" routeLength="4914.33" waitingTime="0.00" waitingCount="0" stopTime="0.00" timeLoss="2.17" rerouteNo="0" devices="tripinfo_CAVToC.3 routing_CAVToC.3 ssm_CAVToC.3 toc_CAVToC.3 driverstateCAVToC.3" vType="vehLVOS768" speedFactor="0.93" vaporized=""/>
    <tripinfo id="LV.3" depart="11.10" departLane="entry_0" departPos="11.88" departSpeed="35.84" departDelay="0.70" arrival="154.70" arrivalLane="e0_1" arrivalPos="4800.00" arrivalSpeed="35.79" duration="143.60" routeLength="4988.12" waitingTime="0.00" waitingCount="0" stopTime="0.00" timeLoss="4.37" rerouteNo="0" devices="tripinfo_LV.3 routing_LV.3 ssm_LV.3" vType="vehLVOS369" speedFactor="0.99" vaporized=""/>
    <tripinfo id="CVToC.4" depart="13.20" departLane="entry_1" departPos="11.82" departSpeed="32.87" departDelay="1.30" arrival="155.90" arrivalLane="e0_1" arrivalPos="4800.00" arrivalSpeed="37.84" duration="142.70" routeLength="4988.18" waitingTime="0.00" waitingCount="0" stopTime="0.00" timeLoss="12.60" rerouteNo="0" devices="tripinfo_CVToC.4 routing_CVToC.4 ssm_CVToC.4 toc_CVToC.4 driverstateCVToC.4" vType="vehLVOS690" speedFactor="1.06" vaporized=""/>
    <tripinfo id="CAVToC.7" depart="14.70" departLane="entry_0" departPos="41.16" departSpeed="33.15" departDelay="0.10" arrival="156.70" arrivalLane="e0_1" arrivalPos="4800.00" arrivalSpeed="38.22" duration="142.00" routeLength="4958.84" waitingTime="0.00" waitingCount="0" stopTime="0.00" timeLoss="21.10" rerouteNo="0" devices="tripinfo_CAVToC.7 routing_CAVToC.7 ssm_CAVToC.7 toc_CAVToC.7 driverstateCAVToC.7" vType="vehLVOS851" speedFactor="1.14" vaporized=""/>
    <tripinfo id="CAVToC.9" depart="17.60" departLane="entry_1" departPos="0.51" departSpeed="30.69" departDelay="1.20" arrival="158.00" arrivalLane="e0_1" arrivalPos="4800.00" arrivalSpeed="39.78" duration="140.40" routeLength="4999.49" waitingTime="0.00" waitingCount="0" stopTime="0.00" timeLoss="14.69" rerouteNo="0" devices="tripinfo_CAVToC.9 routing_CAVToC.9 ssm_CAVToC.9 toc_CAVToC.9 driverstateCAVToC.9" vType="vehLVOS668" speedFactor="1.10" vaporized=""/>
    <tripinfo id="CAVToC.5" depart="6.90" departLane="entry_0" departPos="107.96" departSpeed="32.20" departDelay="0.00" arrival="159.60" arrivalLane="e0_0" arrivalPos="4800.00" arrivalSpeed="32.15" duration="152.70" routeLength="4892.04" waitingTime="0.00" waitingCount="0" stopTime="0.00" timeLoss="0.76" rerouteNo="0" devices="tripinfo_CAVToC.5 routing_CAVToC.5 ssm_CAVToC.5 toc_CAVToC.5 driverstateCAVToC.5" vType="vehLVOS174" speedFactor="0.89" vaporized=""/>
    <tripinfo id="CVToC.2" depart="7.90" departLane="entry_0" departPos="59.83" departSpeed="32.79" departDelay="0.00" arrival="160.70" arrivalLane="e0_0" arrivalPos="4800.00" arrivalSpeed="33.36" duration="152.80" routeLength="4940.17" waitingTime="0.00" waitingCount="0" stopTime="0.00" timeLoss="18.94" rerouteNo="0" devices="tripinfo_CVToC.2 routing_CVToC.2 ssm_CVToC.2 toc_CVToC.2 driverstateCVToC.2" vType="vehLVOS536" speedFactor="1.02" vaporized=""/>
    <tripinfo id="CVToC.10" depart="23.30" departLane="entry_1" departPos="4.17" departSpeed="31.82" departDelay="3.70" arrival="161.80" arrivalLane="e0_1" arrivalPos="4800.00" arrivalSpeed="39.63" duration="138.50" routeLength="4995.83" waitingTime="0.00" waitingCount="0" stopTime="0.00" timeLoss="12.74" rerouteNo="0" devices="tripinfo_CVToC.10 routing_CVToC.10 ssm_CVToC.10 toc_CVToC.10 driverstateCVToC.10" vType="vehLVOS822" speedFactor="1.10" vaporized=""/>
    <tripinfo id="CVToC.9" depart="20.40" departLane="entry_1" departPos="3.68" departSpeed="31.33" departDelay="1.70" arrival="165.60" arrivalLane="e0_1" arrivalPos="4800.00" arrivalSpeed="37.36" duration="145.20" routeLength="4996.32" waitingTime="0.00" waitingCount="0" stopTime="0.00" timeLoss="11.56" rerouteNo="0" devices="tripinfo_CVToC.9 routing_CVToC.9 ssm_CVToC.9 toc_CVToC.9 driverstateCVToC.9" vType="vehLVOS642" speedFactor="1.04" vaporized=""/>
    <tripinfo id="CAVToC.6" depart="10.30" departLane="entry_1" departPos="2.20" departSpeed="32.13" departDelay="0.10" arrival="167.80" arrivalLane="e0_0" arrivalPos="4800.00" arrivalSpeed="32.12" duration="157.50" routeLength="4997.80" waitingTime="0.00" waitingCount="0" stopTime="0.00" timeLoss="1.91" rerouteNo="0" devices="tripinfo_CAVToC.6 routing_CAVToC.6 ssm_CAVToC.6 toc_CAVToC.6 driverstateCAVToC.6" vType="vehLVOS2" speedFactor="0.89" vaporized=""/>
    <tripinfo id="CVToC.12" depart="28.50" departLane="entry_1" departPos="8.26" departSpeed="31.05" departDelay="7.50" arrival="174.60" arrivalLane="e0_0" arrivalPos="4800.00" arrivalSpeed="37.85" duration="146.10" routeLength="4991.74" waitingTime="0.00" waitingCount="0" stopTime="0.00" timeLoss="14.24" rerouteNo="0" devices="tripinfo_CVToC.12 routing_CVToC.12 ssm_CVToC.12 toc_CVToC.12 driverstateCVToC.12" vType="vehLVOS848" speedFactor="1.05" vaporized=""/>
    <tripinfo id="CVToC.13" depart="26.00" departLane="entry_1" departPos="16.09" departSpeed="31.23" departDelay="2.30" arrival="178.20" arrivalLane="e0_0" arrivalPos="4800.00" arrivalSpeed="33.73" duration="152.20" routeLength="4983.91" waitingTime="0.00" waitingCount="0" stopTime="0.00" timeLoss="4.62" rerouteNo="0" devices="tripinfo_CVToC.13 routing_CVToC.13 ssm_CVToC.13 toc_CVToC.13 driverstateCVToC.13" vType="vehLVOS234" speedFactor="0.94" vaporized=""/>
    <tripinfo id="CVToC.15" depart="33.20" departLane="entry_1" departPos="5.98" departSpeed="30.11" departDelay="6.80" arrival="181.20" arrivalLane="e0_1" arrivalPos="4800.00" arrivalSpeed="36.01" duration="148.00" routeLength="4994.02" waitingTime="0.00" waitingCount="0" stopTime="0.00" timeLoss="9.41" rerouteNo="0" devices="tripinfo_CVToC.15 routing_CVToC.15 ssm_CVToC.15 toc_CVToC.15 driverstateCVToC.15" vType="vehLVOS895" speedFactor="1.00" vaporized=""/>
    <tripinfo id="CVToC.11" depart="28.00" departLane="entry_0" departPos="3.63" departSpeed="28.37" departDelay="7.10" arrival="182.40" arrivalLane="e0_1" arrivalPos="4800.00" arrivalSpeed="36.17" duration="154.40" routeLength="4996.37" waitingTime="0.00" waitingCount="0" stopTime="0.00" timeLoss="16.18" rerouteNo="0" devices="tripinfo_CVToC.11 routing_CVToC.11 ssm_CVToC.11 toc_CVToC.11 driverstateCVToC.11" vType="vehLVOS108" speedFactor="1.00" vaporized=""/>
    <tripinfo id="CVToC.14" depart="31.00" departLane="entry_0" departPos="5.07" departSpeed="29.19" departDelay="6.00" arrival="183.80" arrivalLane="e0_1" arrivalPos="4800.00" arrivalSpeed="38.36" duration="152.80" routeLength="4994.93" waitingTime="0.00" waitingCount="0" stopTime="0.00" timeLoss="22.53" rerouteNo="0" devices="tripinfo_CVToC.14 routing_CVToC.14 ssm_CVToC.14 toc_CVToC.14 driverstateCVToC.14" vType="vehLVOS8" speedFactor="1.06" vaporized=""/>
    <tripinfo id="CVToC.6" depart="15.50" departLane="entry_1" departPos="26.03" departSpeed="29.55" departDelay="0.20" arrival="185.60" arrivalLane="e0_0" arrivalPos="4800.00" arrivalSpeed="29.48" duration="170.10" routeLength="4973.97" waitingTime="0.00" waitingCount="0" stopTime="0.00" timeLoss="1.68" rerouteNo="0" devices="tripinfo_CVToC.6 routing_CVToC.6 ssm_CVToC.6 toc_CVToC.6 driverstateCVToC.6" vType="vehLVOS198" speedFactor="0.82" vaporized=""/>
    <tripinfo id="CAVToC.8" depart="16.20" departLane="entry_0" departPos="4.71" departSpeed="33.01" departDelay="0.70" arrival="188.30" arrivalLane="e0_0" arrivalPos="4800.00" arrivalSpeed="31.74" duration="172.10" routeLength="4995.29" waitingTime="0.00" waitingCount="0" stopTime="0.00" timeLoss="41.48" rerouteNo="0" devices="tripinfo_CAVToC.8 routing_CAVToC.8 ssm_CAVToC.8 toc_CAVToC.8 driverstateCAVToC.8" vType="vehLVOS757" speedFactor="1.06" vaporized=""/>
    <tripinfo id="CVToC.5" depart="25.10" departLane="entry_0" departPos="3.20" departSpeed="28.76" departDelay="10.50" arrival="188.50" arrivalLane="e0_1" arrivalPos="4800.00" arrivalSpeed="42.05" duration="163.40" routeLength="4996.80" waitingTime="0.00" waitingCount="0" stopTime="0.00" timeLoss="44.58" rerouteNo="0" devices="tripinfo_CVToC.5 routing_CVToC.5 ssm_CVToC.5 toc_CVToC.5 driverstateCVToC.5" vType="vehLVOS265" speedFactor="1.17" vaporized=""/>
    <tripinfo id="CVToC.7" depart="19.10" departLane="entry_0" departPos="1.53" departSpeed="28.15" departDelay="2.50" arrival="189.30" arrivalLane="e0_0" arrivalPos="4800.00" arrivalSpeed="33.10" duration="170.20" routeLength="4998.47" waitingTime="0.00" waitingCount="0" stopTime="0.00" timeLoss="41.81" rerouteNo="0" devices="tripinfo_CVToC.7 routing_CVToC.7 ssm_CVToC.7 toc_CVToC.7 driverstateCVToC.7" vType="vehLVOS83" speedFactor="1.08" vaporized=""/>
    <tripinfo id="CAVToC.10" depart="22.30" departLane="entry_0" departPos="18.49" departSpeed="28.29" departDelay="3.10" arrival="190.60" arrivalLane="e0_1" arrivalPos="4800.00" arrivalSpeed="32.65" duration="168.30" routeLength="4981.51" waitingTime="0.00" waitingCount="0" stopTime="0.00" timeLoss="15.65" rerouteNo="0" devices="tripinfo_CAVToC.10 routing_CAVToC.10 ssm_CAVToC.10 toc_CAVToC.10 driverstateCAVToC.10" vType="vehLVOS546" speedFactor="0.90" vaporized=""/>
    <tripinfo id="CAVToC.11" depart="31.10" departLane="entry_1" departPos="19.67" departSpeed="30.08" departDelay="5.70" arrival="193.00" arrivalLane="e0_0" arrivalPos="4800.00" arrivalSpeed="31.68" duration="161.90" routeLength="4980.33" waitingTime="0.00" waitingCount="0" stopTime="0.00" timeLoss="4.66" rerouteNo="0" devices="tripinfo_CAVToC.11 routing_CAVToC.11 ssm_CAVToC.11 toc_CAVToC.11 driverstateCAVToC.11" vType="vehLVOS298" speedFactor="0.88" vaporized=""/>
    <tripinfo id="CVToC.19" depart="40.60" departLane="entry_1" departPos="9.09" departSpeed="29.20" departDelay="4.80" arrival="199.50" arrivalLane="e0_1" arrivalPos="4800.00" arrivalSpeed="34.00" duration="158.90" routeLength="4990.91" waitingTime="0.00" waitingCount="0" stopTime="0.00" timeLoss="12.09" rerouteNo="0" devices="tripinfo_CVToC.19 routing_CVToC.19 ssm_CVToC.19 toc_CVToC.19 driverstateCVToC.19" vType="vehLVOS507" speedFactor="0.94" vaporized=""/>
    <tripinfo id="CVToC.17" depart="38.20" departLane="entry_1" departPos="12.96" departSpeed="28.67" departDelay="7.10" arrival="201.60" arrivalLane="e0_0" arrivalPos="4800.00" arrivalSpeed="31.67" duration="163.40" routeLength="4987.04" waitingTime="0.00" waitingCount="0" stopTime="0.00" timeLoss="6.35" rerouteNo="0" devices="tripinfo_CVToC.17 routing_CVToC.17 ssm_CVToC.17 toc_CVToC.17 driverstateCVToC.17" vType="vehLVOS879" speedFactor="0.88" vaporized=""/>
    <tripinfo id="CVToC.20" depart="43.40" departLane="entry_1" departPos="14.37" departSpeed="29.81" departDelay="5.80" arrival="203.60" arrivalLane="e0_1" arrivalPos="4800.00" arrivalSpeed="35.75" duration="160.20" routeLength="4985.63" waitingTime="0.00" waitingCount="0" stopTime="0.00" timeLoss="21.05" rerouteNo="0" devices="tripinfo_CVToC.20 routing_CVToC.20 ssm_CVToC.20 toc_CVToC.20 driverstateCVToC.20" vType="vehLVOS875" speedFactor="0.99" vaporized=""/>
    <tripinfo id="CVToC.16" depart="46.10" departLane="entry_1" departPos="1.01" departSpeed="30.95" departDelay="17.70" arrival="204.90" arrivalLane="e0_1" arrivalPos="4800.00" arrivalSpeed="37.64" duration="158.80" routeLength="4998.99" waitingTime="0.00" waitingCount="0" stopTime="0.00" timeLoss="38.71" rerouteNo="0" devices="tripinfo_CVToC.16 routing_CVToC.16 ssm_CVToC.16 toc_CVToC.16 driverstateCVToC.16" vType="vehLVOS203" speedFactor="1.15" vaporized=""/>
    <tripinfo id="CVToC.8" depart="49.30" departLane="entry_1" departPos="2.81" departSpeed="32.21" departDelay="32.30" arrival="206.20" arrivalLane="e0_1" arrivalPos="4800.00" arrivalSpeed="37.77" duration="156.90" routeLength="4997.19" waitingTime="0.00" waitingCount="0" stopTime="0.00" timeLoss="47.67" rerouteNo="0" devices="tripinfo_CVToC.8 routing_CVToC.8 ssm_CVToC.8 toc_CVToC.8 driverstateCVToC.8" vType="vehLVOS15" speedFactor="1.27" vaporized=""/>
    <tripinfo id="CVToC.22" depart="51.90" departLane="entry_1" departPos="0.41" departSpeed="32.70" departDelay="9.50" arrival="209.10" arrivalLane="e0_1" arrivalPos="4800.00" arrivalSpeed="39.14" duration="157.20" routeLength="4999.59" waitingTime="0.00" waitingCount="0" stopTime="0.00" timeLoss="29.45" rerouteNo="0" devices="tripinfo_CVToC.22 routing_CVToC.22 ssm_CVToC.22 toc_CVToC.22 driverstateCVToC.22" vType="vehLVOS172" speedFactor="1.08" vaporized=""/>
    <tripinfo id="CVToC.23" depart="54.60" departLane="entry_1" departPos="1.68" departSpeed="33.22" departDelay="10.40" arrival="210.30" arrivalLane="e0_1" arrivalPos="4800.00" arrivalSpeed="40.29" duration="155.70" routeLength="4998.32" waitingTime="0.00" waitingCount="0" stopTime="0.00" timeLoss="31.75" rerouteNo="0" devices="tripinfo_CVToC.23 routing_CVToC.23 ssm_CVToC.23 toc_CVToC.23 driverstateCVToC.23" vType="vehLVOS975" speedFactor="1.12" vaporized=""/>
    <tripinfo id="CVToC.26" depart="57.80" departLane="entry_1" departPos="16.68" departSpeed="33.83" departDelay="10.10" arrival="211.30" arrivalLane="e0_1" arrivalPos="4800.00" arrivalSpeed="41.12" duration="153.50" routeLength="4983.32" waitingTime="0.00" waitingCount="0" stopTime="0.00" timeLoss="37.61" rerouteNo="0" devices="tripinfo_CVToC.26 routing_CVToC.26 ssm_CVToC.26 toc_CVToC.26 driverstateCVToC.26" vType="vehLVOS478" speedFactor="1.19" vaporized=""/>
    <tripinfo id="LV.4" depart="35.40" departLane="entry_1" departPos="5.39" departSpeed="28.22" departDelay="7.00" arrival="212.60" arrivalLane="e0_0" arrivalPos="4800.00" arrivalSpeed="28.21" duration="177.20" routeLength="4994.61" waitingTime="0.00" waitingCount="0" stopTime="0.00" timeLoss="0.16" rerouteNo="0" devices="tripinfo_LV.4 routing_LV.4 ssm_LV.4" vType="vehLVOS592" speedFactor="0.78" vaporized=""/>
    <tripinfo id="CAVToC.12" depart="33.10" departLane="entry_0" departPos="0.68" departSpeed="28.62" departDelay="6.60" arrival="213.80" arrivalLane="e0_0" arrivalPos="4800.00" arrivalSpeed="31.07" duration="180.70" routeLength="4999.32" waitingTime="0.00" waitingCount="0" stopTime="0.00" timeLoss="20.60" rerouteNo="0" devices="tripinfo_CAVToC.12 routing_CAVToC.12 ssm_CAVToC.12 toc_CAVToC.12 driverstateCAVToC.12" vType="vehLVOS421" speedFactor="0.87" vaporized=""/>
    <tripinfo id="CAVToC.15" depart="45.10" departLane="entry_0" departPos="8.41" departSpeed="26.91" departDelay="7.30" arrival="214.40" arrivalLane="e0_1" arrivalPos="4800.00" arrivalSpeed="37.84" duration="169.30" routeLength="4991.59" waitingTime="0.00" waitingCount="0" stopTime="0.00" timeLoss="37.73" rerouteNo="0" devices="tripinfo_CAVToC.15 routing_CAVToC.15 ssm_CAVToC.15 toc_CAVToC.15 driverstateCAVToC.15" vType="vehLVOS933" speedFactor="1.05" vaporized=""/>
    <tripinfo id="CAVToC.13" depart="36.20" departLane="entry_0" departPos="14.14" departSpeed="27.28" departDelay="7.00" arrival="215.30" arrivalLane="e0_0" arrivalPos="4800.00" arrivalSpeed="31.45" duration="179.10" routeLength="4985.86" waitingTime="0.00" waitingCount="0" stopTime="0.00" timeLoss="29.69" rerouteNo="0" devices="tripinfo_CAVToC.13 routing_CAVToC.13 ssm_CAVToC.13 toc_CAVToC.13 driverstateCAVToC.13" vType="vehLVOS245" speedFactor="0.92" vaporized=""/>
    <tripinfo id="CVToC.18" depart="41.90" departLane="entry_0" departPos="4.00" departSpeed="26.93" departDelay="8.10" arrival="215.30" arrivalLane="e0_1" arrivalPos="4800.00" arrivalSpeed="37.07" duration="173.40" routeLength="4996.00" waitingTime="0.00" waitingCount="0" stopTime="0.00" timeLoss="38.84" rerouteNo="0" devices="tripinfo_CVToC.18 routing_CVToC.18 ssm_CVToC.18 toc_CVToC.18 driverstateCVToC.18" vType="vehLVOS391" speedFactor="1.03" vaporized=""/>
    <tripinfo id="CAVToC.14" depart="38.80" departLane="entry_0" departPos="0.01" departSpeed="27.43" departDelay="5.60" arrival="217.40" arrivalLane="e0_0" arrivalPos="4800.00" arrivalSpeed="35.20" duration="178.60" routeLength="4999.99" waitingTime="0.00" waitingCount="0" stopTime="0.00" timeLoss="42.65" rerouteNo="0" devices="tripinfo_CAVToC.14 routing_CAVToC.14 ssm_CAVToC.14 toc_CAVToC.14 driverstateCAVToC.14" vType="vehLVOS120" speedFactor="1.02" vaporized=""/>
    <tripinfo id="CAVToC.16" depart="47.60" departLane="entry_0" departPos="1.80" departSpeed="27.16" departDelay="3.90" arrival="219.60" arrivalLane="e0_0" arrivalPos="4800.00" arrivalSpeed="33.22" duration="172.00" routeLength="4998.20" waitingTime="0.00" waitingCount="0" stopTime="0.00" timeLoss="21.72" rerouteNo="0" devices="tripinfo_CAVToC.16 routing_CAVToC.16 ssm_CAVToC.16 toc_CAVToC.16 driverstateCAVToC.16" vType="vehLVOS684" speedFactor="0.92" vaporized=""/>
    <tripinfo id="CAVToC.18" depart="62.80" departLane="entry_1" departPos="35.33" departSpeed="28.90" departDelay="6.50" arrival="231.40" arrivalLane="e0_1" arrivalPos="4800.00" arrivalSpeed="30.51" duration="168.60" routeLength="4964.67" waitingTime="0.00" waitingCount="0" stopTime="0.00" timeLoss="7.03" rerouteNo="0" devices="tripinfo_CAVToC.18 routing_CAVToC.18 ssm_CAVToC.18 toc_CAVToC.18 driverstateCAVToC.18" vType="vehLVOS59" speedFactor="0.85" vaporized=""/>
    <tripinfo id="LV.7" depart="62.20" departLane="entry_0" departPos="34.79" departSpeed="32.28" departDelay="11.20" arrival="233.20" arrivalLane="e0_1" arrivalPos="4800.00" arrivalSpeed="32.24" duration="171.00" routeLength="4965.21" waitingTime="0.00" waitingCount="0" stopTime="0.00" timeLoss="17.10" rerouteNo="0" devices="tripinfo_LV.7 routing_LV.7 ssm_LV.7" vType="vehLVOS782" speedFactor="0.89" vaporized=""/>
    <tripinfo id="CAVToC.17" depart="59.20" departLane="entry_1" departPos="1.03" departSpeed="28.57" departDelay="7.90" arrival="234.60" arrivalLane="e0_0" arrivalPos="4800.00" arrivalSpeed="28.53" duration="175.40" routeLength="4998.97" waitingTime="0.00" waitingCount="0" stopTime="0.00" timeLoss="0.34" rerouteNo="0" devices="tripinfo_CAVToC.17 routing_CAVToC.17 ssm_CAVToC.17 toc_CAVToC.17 driverstateCAVToC.17" vType="vehLVOS274" speedFactor="0.79" vaporized=""/>
    <tripinfo id="CVToC.27" depart="59.80" departLane="entry_0" departPos="21.31" departSpeed="31.12" departDelay="5.70" arrival="235.00" arrivalLane="e0_1" arrivalPos="4800.00" arrivalSpeed="35.56" duration="175.20" routeLength="4978.69" waitingTime="0.00" waitingCount="0" stopTime="0.00" timeLoss="50.97" rerouteNo="0" devices="tripinfo_CVToC.27 routing_CVToC.27 ssm_CVToC.27 toc_CVToC.27 driverstateCVToC.27" vType="vehLVOS663" speedFactor="1.11" vaporized=""/>
    <tripinfo id="CAVToC.20" depart="65.50" departLane="entry_1" departPos="31.88" departSpeed="29.65" departDelay="8.60" arrival="236.00" arrivalLane="e0_1" arrivalPos="4800.00" arrivalSpeed="36.01" duration="170.50" routeLength="4968.12" waitingTime="0.00" waitingCount="0" stopTime="0.00" timeLoss="32.62" rerouteNo="0" devices="tripinfo_CAVToC.20 routing_CAVToC.20 ssm_CAVToC.20 toc_CAVToC.20 driverstateCAVToC.20" vType="vehLVOS163" speedFactor="1.00" vaporized=""/>
    <tripinfo id="CVToC.21" depart="50.50" departLane="entry_0" departPos="2.59" departSpeed="27.85" departDelay="11.40" arrival="236.30" arrivalLane="e0_0" arrivalPos="4800.00" arrivalSpeed="31.56" duration="185.80" routeLength="4997.41" waitingTime="0.00" waitingCount="0" stopTime="0.00" timeLoss="45.58" rerouteNo="0" devices="tripinfo_CVToC.21 routing_CVToC.21 ssm_CVToC.21 toc_CVToC.21 driverstateCVToC.21" vType="vehLVOS680" speedFactor="0.99" vaporized=""/>
    <tripinfo id="LV.10" depart="70.60" departLane="entry_1" departPos="20.89" departSpeed="41.94" departDelay="11.90" arrival="237.40" arrivalLane="e0_1" arrivalPos="4800.00" arrivalSpeed="37.94" duration="166.80" routeLength="4979.11" waitingTime="0.00" waitingCount="0" stopTime="0.00" timeLoss="48.02" rerouteNo="0" devices="tripinfo_LV.10 routing_LV.10 ssm_LV.10" vType="vehLVOS445" speedFactor="1.16" vaporized=""/>
    <tripinfo id="CAVToC.24" depart="71.90" departLane="entry_1" departPos="8.65" departSpeed="31.25" departDelay="10.00" arrival="239.20" arrivalLane="e0_1" arrivalPos="4800.00" arrivalSpeed="31.24" duration="167.30" routeLength="4991.35" waitingTime="0.00" waitingCount="0" stopTime="0.00" timeLoss="7.53" rerouteNo="0" devices="tripinfo_CAVToC.24 routing_CAVToC.24 ssm_CAVToC.24 toc_CAVToC.24 driverstateCAVToC.24" vType="vehLVOS640" speedFactor="0.87" vaporized=""/>
    <tripinfo id="CVToC.25" depart="53.60" departLane="entry_0" departPos="17.10" departSpeed="28.58" departDelay="7.10" arrival="240.40" arrivalLane="e0_0" arrivalPos="4800.00" arrivalSpeed="33.13" duration="186.80" routeLength="4982.90" waitingTime="0.00" waitingCount="0" stopTime="0.00" timeLoss="38.66" rerouteNo="0" devices="tripinfo_CVToC.25 routing_CVToC.25 ssm_CVToC.25 toc_CVToC.25 driverstateCVToC.25" vType="vehLVOS574" speedFactor="0.93" vaporized=""/>
    <tripinfo id="CAVToC.23" depart="74.50" departLane="entry_1" departPos="7.24" departSpeed="32.07" departDelay="13.30" arrival="241.60" arrivalLane="e0_1" arrivalPos="4800.00" arrivalSpeed="34.96" duration="167.10" routeLength="4992.76" waitingTime="0.00" waitingCount="0" stopTime="0.00" timeLoss="36.43" rerouteNo="0" devices="tripinfo_CAVToC.23 routing_CAVToC.23 ssm_CAVToC.23 toc_CAVToC.23 driverstateCAVToC.23" vType="vehLVOS951" speedFactor="1.06" vaporized=""/>
    <tripinfo id="CVToC.24" depart="56.40" departLane="entry_0" departPos="2.84" departSpeed="30.09" departDelay="10.90" arrival="242.00" arrivalLane="e0_0" arrivalPos="4800.00" arrivalSpeed="35.64" duration="185.60" routeLength="4997.16" waitingTime="0.00" waitingCount="0" stopTime="0.00" timeLoss="65.58" rerouteNo="0" devices="tripinfo_CVToC.24 routing_CVToC.24 ssm_CVToC.24 toc_CVToC.24 driverstateCVToC.24" vType="vehLVOS243" speedFactor="1.15" vaporized=""/>
    <tripinfo id="CVToC.28" depart="78.70" departLane="entry_1" departPos="55.74" departSpeed="32.63" departDelay="16.40" arrival="243.40" arrivalLane="e0_1" arrivalPos="4800.00" arrivalSpeed="36.28" duration="164.70" routeLength="4944.26" waitingTime="0.00" waitingCount="0" stopTime="0.00" timeLoss="35.45" rerouteNo="0" devices="tripinfo_CVToC.28 routing_CVToC.28 ssm_CVToC.28 toc_CVToC.28 driverstateCVToC.28" vType="vehLVOS112" speedFactor="1.06" vaporized=""/>
    <tripinfo id="CAVToC.19" depart="64.40" departLane="entry_0" departPos="3.70" departSpeed="31.02" departDelay="7.70" arrival="244.10" arrivalLane="e0_0" arrivalPos="4800.00" arrivalSpeed="33.98" duration="179.70" routeLength="4996.30" waitingTime="0.00" waitingCount="0" stopTime="0.00" timeLoss="66.37" rerouteNo="0" devices="tripinfo_CAVToC.19 routing_CAVToC.19 ssm_CAVToC.19 toc_CAVToC.19 driverstateCAVToC.19" vType="vehLVOS699" speedFactor="1.22" vaporized=""/>
    <tripinfo id="LV.12" depart="78.70" departLane="entry_1" departPos="1.81" departSpeed="36.20" departDelay="14.70" arrival="244.20" arrivalLane="e0_1" arrivalPos="4800.00" arrivalSpeed="35.61" duration="165.50" routeLength="4998.19" waitingTime="0.00" waitingCount="0" stopTime="0.00" timeLoss="27.41" rerouteNo="0" devices="tripinfo_LV.12 routing_LV.12 ssm_LV.12" vType="vehLVOS648" speedFactor="1.00" vaporized=""/>
    <tripinfo id="LV.5" depart="69.70" departLane="entry_0" departPos="5.63" departSpeed="38.10" departDelay="25.30" arrival="245.70" arrivalLane="e0_0" arrivalPos="4800.00" arrivalSpeed="36.64" duration="176.00" routeLength="4994.37" waitingTime="0.00" waitingCount="0" stopTime="0.00" timeLoss="44.82" rerouteNo="0" devices="tripinfo_LV.5 routing_LV.5 ssm_LV.5" vType="vehLVOS890" speedFactor="1.06" vaporized=""/>