<?xml version="1.0" encoding="UTF-8"?>

<!-- generated on 09/23/20 16:36:54 by Eclipse SUMO Version 1.6.0
<configuration xmlns:xsi="http://www.w3.org/2001/XMLSchema-instance" xsi:noNamespaceSchemaLocation="http://sumo.dlr.de/xsd/sumoConfiguration.xsd">

    <input>
        <net-file value="scenario/UC5_1.net.xml"/>
        <route-files value="scenario/routes_trafficMix_0_trafficDemand_1_driverBehaviour_OS_seed_0.xml"/>
        <additional-files value="scenario/additionalsOutput_trafficMix_0_trafficDemand_1_driverBehaviour_OS_seed_0.xml,scenario/vTypesCAVToC_OS.add.xml,scenario/vTypesCVToC_OS.add.xml,scenario/vTypesLV_OS.add.xml,scenario/shapes.add.xml,scenario/view.add.xml"/>
    </input>

    <output>
        <tripinfo-output value="C:\Users\laborknecht\Aris\workspace\ma-branch\tor-distribution/outputs/simulations/DQN__2020-09-23_11-07-42__20200923-155324/tripinfo_5.xml"/>
    </output>

    <time>
        <step-length value="0.1"/>
    </time>

    <processing>
        <step-method.ballistic value="true"/>
        <ignore-route-errors value="true"/>
        <lanechange.duration value="2.5"/>
    </processing>

    <report>
        <no-step-log value="true"/>
    </report>

    <toc_device>
        <device.toc.ogNewTimeHeadway value="100"/>
        <device.toc.ogNewSpaceHeadway value="5"/>
        <device.toc.ogMaxDecel value="1"/>
        <device.toc.ogChangeRate value="1"/>
    </toc_device>

    <traci_server>
        <remote-port value="52369"/>
    </traci_server>

    <random_number>
        <seed value="1029"/>
    </random_number>

    <gui_only>
        <tracker-interval value="0.1"/>
    </gui_only>

</configuration>
-->

<tripinfos xmlns:xsi="http://www.w3.org/2001/XMLSchema-instance" xsi:noNamespaceSchemaLocation="http://sumo.dlr.de/xsd/tripinfo_file.xsd">
    <tripinfo id="CVToC.0" depart="6.40" departLane="entry_0" departPos="199.90" departSpeed="40.78" departDelay="0.00" arrival="124.40" arrivalLane="e0_0" arrivalPos="4800.00" arrivalSpeed="40.77" duration="118.00" routeLength="4800.10" waitingTime="0.00" waitingCount="0" stopTime="0.00" timeLoss="0.23" rerouteNo="0" devices="tripinfo_CVToC.0 routing_CVToC.0 ssm_CVToC.0 toc_CVToC.0 driverstateCVToC.0" vType="vehLVOS899" speedFactor="1.13" vaporized=""/>
    <tripinfo id="CVToC.2" depart="8.10" departLane="entry_0" departPos="192.66" departSpeed="36.48" departDelay="0.00" arrival="140.00" arrivalLane="e0_0" arrivalPos="4800.00" arrivalSpeed="36.46" duration="131.90" routeLength="4807.34" waitingTime="0.00" waitingCount="0" stopTime="0.00" timeLoss="0.05" rerouteNo="0" devices="tripinfo_CVToC.2 routing_CVToC.2 ssm_CVToC.2 toc_CVToC.2 driverstateCVToC.2" vType="vehLVOS335" speedFactor="1.01" vaporized=""/>
    <tripinfo id="CVToC.1" depart="7.60" departLane="entry_1" departPos="199.90" departSpeed="33.37" departDelay="0.00" arrival="151.60" arrivalLane="e0_1" arrivalPos="4800.00" arrivalSpeed="33.27" duration="144.00" routeLength="4800.10" waitingTime="0.00" waitingCount="0" stopTime="0.00" timeLoss="0.15" rerouteNo="0" devices="tripinfo_CVToC.1 routing_CVToC.1 ssm_CVToC.1 toc_CVToC.1 driverstateCVToC.1" vType="vehLVOS940" speedFactor="0.92" vaporized=""/>
    <tripinfo id="CVToC.3" depart="11.40" departLane="entry_1" departPos="199.90" departSpeed="35.18" departDelay="0.00" arrival="152.50" arrivalLane="e0_1" arrivalPos="4800.00" arrivalSpeed="34.27" duration="141.10" routeLength="4800.10" waitingTime="0.00" waitingCount="0" stopTime="0.00" timeLoss="4.65" rerouteNo="0" devices="tripinfo_CVToC.3 routing_CVToC.3 ssm_CVToC.3 toc_CVToC.3 driverstateCVToC.3" vType="vehLVOS495" speedFactor="0.97" vaporized=""/>
    <tripinfo id="CVToC.4" depart="11.60" departLane="entry_0" departPos="199.90" departSpeed="34.89" departDelay="0.00" arrival="152.90" arrivalLane="e0_0" arrivalPos="4800.00" arrivalSpeed="34.69" duration="141.30" routeLength="4800.10" waitingTime="0.00" waitingCount="0" stopTime="0.00" timeLoss="3.70" rerouteNo="0" devices="tripinfo_CVToC.4 routing_CVToC.4 ssm_CVToC.4 toc_CVToC.4 driverstateCVToC.4" vType="vehLVOS660" speedFactor="0.97" vaporized=""/>
    <tripinfo id="CAVToC.0" depart="11.90" departLane="entry_0" departPos="138.90" departSpeed="35.02" departDelay="0.00" arrival="154.70" arrivalLane="e0_0" arrivalPos="4800.00" arrivalSpeed="35.08" duration="142.80" routeLength="4861.10" waitingTime="0.00" waitingCount="0" stopTime="0.00" timeLoss="4.59" rerouteNo="0" devices="tripinfo_CAVToC.0 routing_CAVToC.0 ssm_CAVToC.0 toc_CAVToC.0 driverstateCAVToC.0" vType="vehLVOS675" speedFactor="0.97" vaporized=""/>
    <tripinfo id="CVToC.5" depart="12.80" departLane="entry_0" departPos="99.56" departSpeed="34.90" departDelay="0.00" arrival="155.50" arrivalLane="e0_1" arrivalPos="4800.00" arrivalSpeed="34.88" duration="142.70" routeLength="4900.44" waitingTime="0.00" waitingCount="0" stopTime="0.00" timeLoss="2.26" rerouteNo="0" devices="tripinfo_CVToC.5 routing_CVToC.5 ssm_CVToC.5 toc_CVToC.5 driverstateCVToC.5" vType="vehLVOS939" speedFactor="0.97" vaporized=""/>
    <tripinfo id="CAVToC.1" depart="14.70" departLane="entry_1" departPos="82.68" departSpeed="35.34" departDelay="0.00" arrival="156.30" arrivalLane="e0_1" arrivalPos="4800.00" arrivalSpeed="36.00" duration="141.60" routeLength="4917.32" waitingTime="0.00" waitingCount="0" stopTime="0.00" timeLoss="16.01" rerouteNo="0" devices="tripinfo_CAVToC.1 routing_CAVToC.1 ssm_CAVToC.1 toc_CAVToC.1 driverstateCAVToC.1" vType="vehLVOS358" speedFactor="1.08" vaporized=""/>
    <tripinfo id="CAVToC.2" depart="15.00" departLane="entry_0" departPos="85.87" departSpeed="35.48" departDelay="0.00" arrival="157.30" arrivalLane="e0_0" arrivalPos="4800.00" arrivalSpeed="37.22" duration="142.30" routeLength="4914.13" waitingTime="0.00" waitingCount="0" stopTime="0.00" timeLoss="24.07" rerouteNo="0" devices="tripinfo_CAVToC.2 routing_CAVToC.2 ssm_CAVToC.2 toc_CAVToC.2 driverstateCAVToC.2" vType="vehLVOS879" speedFactor="1.15" vaporized=""/>
    <tripinfo id="LV.0" depart="17.20" departLane="entry_0" departPos="2.39" departSpeed="43.56" departDelay="0.40" arrival="158.30" arrivalLane="e0_1" arrivalPos="4800.00" arrivalSpeed="37.97" duration="141.10" routeLength="4997.61" waitingTime="0.00" waitingCount="0" stopTime="0.00" timeLoss="26.37" rerouteNo="0" devices="tripinfo_LV.0 routing_LV.0 ssm_LV.0" vType="vehLVOS518" speedFactor="1.21" vaporized=""/>
    <tripinfo id="CAVToC.7" depart="22.00" departLane="entry_1" departPos="6.20" departSpeed="31.13" departDelay="0.10" arrival="160.10" arrivalLane="e0_1" arrivalPos="4800.00" arrivalSpeed="38.97" duration="138.10" routeLength="4993.80" waitingTime="0.00" waitingCount="0" stopTime="0.00" timeLoss="23.12" rerouteNo="0" devices="tripinfo_CAVToC.7 routing_CAVToC.7 ssm_CAVToC.7 toc_CAVToC.7 driverstateCAVToC.7" vType="vehLVOS224" speedFactor="1.20" vaporized=""/>
    <tripinfo id="CAVToC.3" depart="15.60" departLane="entry_1" departPos="39.19" departSpeed="34.09" departDelay="0.00" arrival="164.10" arrivalLane="e0_0" arrivalPos="4800.00" arrivalSpeed="34.03" duration="148.50" routeLength="4960.81" waitingTime="0.00" waitingCount="0" stopTime="0.00" timeLoss="2.94" rerouteNo="0" devices="tripinfo_CAVToC.3 routing_CAVToC.3 ssm_CAVToC.3 toc_CAVToC.3 driverstateCAVToC.3" vType="vehLVOS705" speedFactor="0.94" vaporized=""/>
    <tripinfo id="CAVToC.4" depart="17.20" departLane="entry_1" departPos="26.15" departSpeed="33.23" departDelay="0.00" arrival="169.30" arrivalLane="e0_0" arrivalPos="4800.00" arrivalSpeed="33.20" duration="152.10" routeLength="4973.85" waitingTime="0.00" waitingCount="0" stopTime="0.00" timeLoss="2.35" rerouteNo="0" devices="tripinfo_CAVToC.4 routing_CAVToC.4 ssm_CAVToC.4 toc_CAVToC.4 driverstateCAVToC.4" vType="vehLVOS162" speedFactor="0.92" vaporized=""/>
    <tripinfo id="CAVToC.5" depart="20.90" departLane="entry_1" departPos="68.12" departSpeed="29.71" departDelay="0.00" arrival="176.50" arrivalLane="e0_0" arrivalPos="4800.00" arrivalSpeed="32.50" duration="155.60" routeLength="4931.88" waitingTime="0.00" waitingCount="0" stopTime="0.00" timeLoss="4.00" rerouteNo="0" devices="tripinfo_CAVToC.5 routing_CAVToC.5 ssm_CAVToC.5 toc_CAVToC.5 driverstateCAVToC.5" vType="vehLVOS907" speedFactor="0.90" vaporized=""/>
    <tripinfo id="LV.3" depart="23.40" departLane="entry_1" departPos="1.99" departSpeed="33.01" departDelay="0.80" arrival="180.80" arrivalLane="e0_0" arrivalPos="4800.00" arrivalSpeed="32.99" duration="157.40" routeLength="4998.01" waitingTime="0.00" waitingCount="0" stopTime="0.00" timeLoss="5.92" rerouteNo="0" devices="tripinfo_LV.3 routing_LV.3 ssm_LV.3" vType="vehLVOS870" speedFactor="0.91" vaporized=""/>
    <tripinfo id="CAVToC.8" depart="27.20" departLane="entry_1" departPos="53.61" departSpeed="32.26" departDelay="0.00" arrival="183.70" arrivalLane="e0_1" arrivalPos="4800.00" arrivalSpeed="33.12" duration="156.50" routeLength="4946.39" waitingTime="0.00" waitingCount="0" stopTime="0.00" timeLoss="7.25" rerouteNo="0" devices="tripinfo_CAVToC.8 routing_CAVToC.8 ssm_CAVToC.8 toc_CAVToC.8 driverstateCAVToC.8" vType="vehLVOS471" speedFactor="0.92" vaporized=""/>
    <tripinfo id="CVToC.8" depart="28.70" departLane="entry_1" departPos="22.38" departSpeed="32.61" departDelay="1.00" arrival="185.10" arrivalLane="e0_1" arrivalPos="4800.00" arrivalSpeed="35.97" duration="156.40" routeLength="4977.62" waitingTime="0.00" waitingCount="0" stopTime="0.00" timeLoss="21.52" rerouteNo="0" devices="tripinfo_CVToC.8 routing_CVToC.8 ssm_CVToC.8 toc_CVToC.8 driverstateCVToC.8" vType="vehLVOS255" speedFactor="1.02" vaporized=""/>
    <tripinfo id="LV.2" depart="20.40" departLane="entry_1" departPos="124.90" departSpeed="29.31" departDelay="0.00" arrival="187.40" arrivalLane="e0_0" arrivalPos="4800.00" arrivalSpeed="29.28" duration="167.00" routeLength="4875.10" waitingTime="0.00" waitingCount="0" stopTime="0.00" timeLoss="0.61" rerouteNo="0" devices="tripinfo_LV.2 routing_LV.2 ssm_LV.2" vType="vehLVOS419" speedFactor="0.81" vaporized=""/>
    <tripinfo id="CVToC.9" depart="30.30" departLane="entry_1" departPos="0.15" departSpeed="32.54" departDelay="0.90" arrival="187.40" arrivalLane="e0_1" arrivalPos="4800.00" arrivalSpeed="33.84" duration="157.10" routeLength="4999.85" waitingTime="0.00" waitingCount="0" stopTime="0.00" timeLoss="9.31" rerouteNo="0" devices="tripinfo_CVToC.9 routing_CVToC.9 ssm_CVToC.9 toc_CVToC.9 driverstateCVToC.9" vType="vehLVOS158" speedFactor="0.94" vaporized=""/>
    <tripinfo id="CAVToC.10" depart="33.10" departLane="entry_1" departPos="3.19" departSpeed="32.38" departDelay="3.30" arrival="189.00" arrivalLane="e0_1" arrivalPos="4800.00" arrivalSpeed="35.80" duration="155.90" routeLength="4996.81" waitingTime="0.00" waitingCount="0" stopTime="0.00" timeLoss="27.32" rerouteNo="0" devices="tripinfo_CAVToC.10 routing_CAVToC.10 ssm_CAVToC.10 toc_CAVToC.10 driverstateCAVToC.10" vType="vehLVOS998" speedFactor="1.08" vaporized=""/>
    <tripinfo id="CVToC.11" depart="36.10" departLane="entry_1" departPos="8.77" departSpeed="32.00" departDelay="3.90" arrival="191.70" arrivalLane="e0_1" arrivalPos="4800.00" arrivalSpeed="38.44" duration="155.60" routeLength="4991.23" waitingTime="0.00" waitingCount="0" stopTime="0.00" timeLoss="34.90" rerouteNo="0" devices="tripinfo_CVToC.11 routing_CVToC.11 ssm_CVToC.11 toc_CVToC.11 driverstateCVToC.11" vType="vehLVOS162" speedFactor="1.15" vaporized=""/>
    <tripinfo id="CAVToC.12" depart="38.50" departLane="entry_1" departPos="1.12" departSpeed="31.69" departDelay="6.10" arrival="194.90" arrivalLane="e0_1" arrivalPos="4800.00" arrivalSpeed="39.34" duration="156.40" routeLength="4998.88" waitingTime="0.00" waitingCount="0" stopTime="0.00" timeLoss="29.36" rerouteNo="0" devices="tripinfo_CAVToC.12 routing_CAVToC.12 ssm_CAVToC.12 toc_CAVToC.12 driverstateCAVToC.12" vType="vehLVOS472" speedFactor="1.09" vaporized=""/>
    <tripinfo id="CVToC.13" depart="43.30" departLane="entry_1" departPos="0.95" departSpeed="30.19" departDelay="7.60" arrival="196.00" arrivalLane="e0_0" arrivalPos="4800.00" arrivalSpeed="37.23" duration="152.70" routeLength="4999.05" waitingTime="0.00" waitingCount="0" stopTime="0.00" timeLoss="18.74" rerouteNo="0" devices="tripinfo_CVToC.13 routing_CVToC.13 ssm_CVToC.13 toc_CVToC.13 driverstateCVToC.13" vType="vehLVOS537" speedFactor="1.03" vaporized=""/>
    <tripinfo id="CVToC.15" depart="46.20" departLane="entry_1" departPos="8.16" departSpeed="29.56" departDelay="7.00" arrival="196.40" arrivalLane="e0_1" arrivalPos="4800.00" arrivalSpeed="35.85" duration="150.20" routeLength="4991.84" waitingTime="0.00" waitingCount="0" stopTime="0.00" timeLoss="11.10" rerouteNo="0" devices="tripinfo_CVToC.15 routing_CVToC.15 ssm_CVToC.15 toc_CVToC.15 driverstateCVToC.15" vType="vehLVOS96" speedFactor="0.99" vaporized=""/>
    <tripinfo id="CVToC.17" depart="49.40" departLane="entry_1" departPos="16.65" departSpeed="29.86" departDelay="7.50" arrival="200.90" arrivalLane="e0_1" arrivalPos="4800.00" arrivalSpeed="38.35" duration="151.50" routeLength="4983.35" waitingTime="0.00" waitingCount="0" stopTime="0.00" timeLoss="21.51" rerouteNo="0" devices="tripinfo_CVToC.17 routing_CVToC.17 ssm_CVToC.17 toc_CVToC.17 driverstateCVToC.17" vType="vehLVOS265" speedFactor="1.06" vaporized=""/>
    <tripinfo id="CVToC.20" depart="51.70" departLane="entry_1" departPos="6.31" departSpeed="30.48" departDelay="4.70" arrival="201.70" arrivalLane="e0_0" arrivalPos="4800.00" arrivalSpeed="36.56" duration="150.00" routeLength="4993.69" waitingTime="0.00" waitingCount="0" stopTime="0.00" timeLoss="13.51" rerouteNo="0" devices="tripinfo_CVToC.20 routing_CVToC.20 ssm_CVToC.20 toc_CVToC.20 driverstateCVToC.20" vType="vehLVOS82" speedFactor="1.01" vaporized=""/>
    <tripinfo id="CVToC.19" depart="55.40" departLane="entry_1" departPos="35.54" departSpeed="30.88" departDelay="9.40" arrival="204.00" arrivalLane="e0_1" arrivalPos="4800.00" arrivalSpeed="36.73" duration="148.60" routeLength="4964.46" waitingTime="0.00" waitingCount="0" stopTime="0.00" timeLoss="13.37" rerouteNo="0" devices="tripinfo_CVToC.19 routing_CVToC.19 ssm_CVToC.19 toc_CVToC.19 driverstateCVToC.19" vType="vehLVOS443" speedFactor="1.02" vaporized=""/>
    <tripinfo id="CAVToC.17" depart="56.70" departLane="entry_1" departPos="1.01" departSpeed="31.20" departDelay="3.00" arrival="209.60" arrivalLane="e0_0" arrivalPos="4800.00" arrivalSpeed="34.36" duration="152.90" routeLength="4998.99" waitingTime="0.00" waitingCount="0" stopTime="0.00" timeLoss="7.46" rerouteNo="0" devices="tripinfo_CAVToC.17 routing_CAVToC.17 ssm_CAVToC.17 toc_CAVToC.17 driverstateCAVToC.17" vType="vehLVOS557" speedFactor="0.95" vaporized=""/>
    <tripinfo id="CVToC.22" depart="59.60" departLane="entry_1" departPos="4.01" departSpeed="32.01" departDelay="8.00" arrival="213.30" arrivalLane="e0_1" arrivalPos="4800.00" arrivalSpeed="41.97" duration="153.70" routeLength="4995.99" waitingTime="0.00" waitingCount="0" stopTime="0.00" timeLoss="34.67" rerouteNo="0" devices="tripinfo_CVToC.22 routing_CVToC.22 ssm_CVToC.22 toc_CVToC.22 driverstateCVToC.22" vType="vehLVOS804" speedFactor="1.16" vaporized=""/>
    <tripinfo id="LV.1" depart="18.90" departLane="entry_0" departPos="64.57" departSpeed="25.27" departDelay="0.00" arrival="214.50" arrivalLane="e0_0" arrivalPos="4800.00" arrivalSpeed="25.27" duration="195.60" routeLength="4935.43" waitingTime="0.00" waitingCount="0" stopTime="0.00" timeLoss="0.18" rerouteNo="0" devices="tripinfo_LV.1 routing_LV.1 ssm_LV.1" vType="vehLVOS909" speedFactor="0.70" vaporized=""/>
    <tripinfo id="CAVToC.16" depart="56.10" departLane="entry_0" departPos="17.27" departSpeed="27.61" departDelay="7.00" arrival="215.90" arrivalLane="e0_1" arrivalPos="4800.00" arrivalSpeed="34.34" duration="159.80" routeLength="4982.73" waitingTime="0.00" waitingCount="0" stopTime="0.00" timeLoss="14.82" rerouteNo="0" devices="tripinfo_CAVToC.16 routing_CAVToC.16 ssm_CAVToC.16 toc_CAVToC.16 driverstateCAVToC.16" vType="vehLVOS137" speedFactor="0.95" vaporized=""/>
    <tripinfo id="CAVToC.6" depart="21.70" departLane="entry_0" departPos="45.95" departSpeed="26.77" departDelay="0.00" arrival="216.60" arrivalLane="e0_0" arrivalPos="4800.00" arrivalSpeed="29.56" duration="194.90" routeLength="4954.05" waitingTime="0.00" waitingCount="0" stopTime="0.00" timeLoss="67.89" rerouteNo="0" devices="tripinfo_CAVToC.6 routing_CAVToC.6 ssm_CAVToC.6 toc_CAVToC.6 driverstateCAVToC.6" vType="vehLVOS533" speedFactor="1.08" vaporized=""/>
    <tripinfo id="CAVToC.14" depart="39.30" departLane="entry_0" departPos="13.28" departSpeed="27.78" departDelay="2.80" arrival="217.40" arrivalLane="e0_1" arrivalPos="4800.00" arrivalSpeed="34.94" duration="178.10" routeLength="4986.72" waitingTime="0.00" waitingCount="0" stopTime="0.00" timeLoss="35.35" rerouteNo="0" devices="tripinfo_CAVToC.14 routing_CAVToC.14 ssm_CAVToC.14 toc_CAVToC.14 driverstateCAVToC.14" vType="vehLVOS903" speedFactor="0.97" vaporized=""/>
    <tripinfo id="CVToC.6" depart="23.10" departLane="entry_0" departPos="12.10" departSpeed="27.36" departDelay="0.00" arrival="217.60" arrivalLane="e0_0" arrivalPos="4800.00" arrivalSpeed="30.10" duration="194.50" routeLength="4987.90" waitingTime="0.00" waitingCount="0" stopTime="0.00" timeLoss="40.63" rerouteNo="0" devices="tripinfo_CVToC.6 routing_CVToC.6 ssm_CVToC.6 toc_CVToC.6 driverstateCVToC.6" vType="vehLVOS168" speedFactor="0.90" vaporized=""/>
    <tripinfo id="CVToC.12" depart="36.20" departLane="entry_0" departPos="5.62" departSpeed="28.55" departDelay="2.00" arrival="218.50" arrivalLane="e0_1" arrivalPos="4800.00" arrivalSpeed="35.57" duration="182.30" routeLength="4994.38" waitingTime="0.00" waitingCount="0" stopTime="0.00" timeLoss="42.10" rerouteNo="0" devices="tripinfo_CVToC.12 routing_CVToC.12 ssm_CVToC.12 toc_CVToC.12 driverstateCVToC.12" vType="vehLVOS297" speedFactor="0.99" vaporized=""/>
    <tripinfo id="LV.6" depart="66.40" departLane="entry_1" departPos="6.36" departSpeed="41.50" departDelay="10.70" arrival="220.80" arrivalLane="e0_1" arrivalPos="4800.00" arrivalSpeed="41.44" duration="154.40" routeLength="4993.64" waitingTime="0.00" waitingCount="0" stopTime="0.00" timeLoss="34.06" rerouteNo="0" devices="tripinfo_LV.6 routing_LV.6 ssm_LV.6" vType="vehLVOS507" speedFactor="1.15" vaporized=""/>
    <tripinfo id="CVToC.7" depart="26.00" departLane="entry_0" departPos="4.39" departSpeed="28.30" departDelay="1.50" arrival="221.00" arrivalLane="e0_0" arrivalPos="4800.00" arrivalSpeed="32.77" duration="195.00" routeLength="4995.61" waitingTime="0.00" waitingCount="0" stopTime="0.00" timeLoss="73.51" rerouteNo="0" devices="tripinfo_CVToC.7 routing_CVToC.7 ssm_CVToC.7 toc_CVToC.7 driverstateCVToC.7" vType="vehLVOS534" speedFactor="1.14" vaporized=""/>
    <tripinfo id="CAVToC.9" depart="29.10" departLane="entry_0" departPos="10.13" departSpeed="29.15" departDelay="0.20" arrival="222.80" arrivalLane="e0_0" arrivalPos="4800.00" arrivalSpeed="31.03" duration="193.70" routeLength="4989.87" waitingTime="0.00" waitingCount="0" stopTime="0.00" timeLoss="64.06" rerouteNo="0" devices="tripinfo_CAVToC.9 routing_CAVToC.9 ssm_CAVToC.9 toc_CAVToC.9 driverstateCAVToC.9" vType="vehLVOS750" speedFactor="1.07" vaporized=""/>
    <tripinfo id="CAVToC.15" depart="40.50" departLane="entry_1" departPos="1.90" departSpeed="29.84" departDelay="2.50" arrival="225.70" arrivalLane="e0_0" arrivalPos="4800.00" arrivalSpeed="29.80" duration="185.20" routeLength="4998.10" waitingTime="0.00" waitingCount="0" stopTime="0.00" timeLoss="17.65" rerouteNo="0" devices="tripinfo_CAVToC.15 routing_CAVToC.15 ssm_CAVToC.15 toc_CAVToC.15 driverstateCAVToC.15" vType="vehLVOS676" speedFactor="0.83" vaporized=""/>
    <tripinfo id="CAVToC.11" depart="31.30" departLane="entry_0" departPos="10.62" departSpeed="29.10" departDelay="0.70" arrival="227.00" arrivalLane="e0_0" arrivalPos="4800.00" arrivalSpeed="29.56" duration="195.70" routeLength="4989.38" waitingTime="0.00" waitingCount="0" stopTime="0.00" timeLoss="27.08" rerouteNo="0" devices="tripinfo_CAVToC.11 routing_CAVToC.11 ssm_CAVToC.11 toc_CAVToC.11 driverstateCAVToC.11" vType="vehLVOS476" speedFactor="0.82" vaporized=""/>
    <tripinfo id="CVToC.24" depart="68.50" departLane="entry_1" departPos="6.87" departSpeed="36.47" departDelay="9.00" arrival="227.60" arrivalLane="e0_1" arrivalPos="4800.00" arrivalSpeed="38.78" duration="159.10" routeLength="4993.13" waitingTime="0.00" waitingCount="0" stopTime="0.00" timeLoss="30.60" rerouteNo="0" devices="tripinfo_CVToC.24 routing_CVToC.24 ssm_CVToC.24 toc_CVToC.24 driverstateCVToC.24" vType="vehLVOS309" speedFactor="1.08" vaporized=""/>
    <tripinfo id="CVToC.10" depart="33.30" departLane="entry_0" departPos="0.91" departSpeed="28.90" departDelay="2.50" arrival="228.70" arrivalLane="e0_0" arrivalPos="4800.00" arrivalSpeed="30.07" duration="195.40" routeLength="4999.09" waitingTime="0.00" waitingCount="0" stopTime="0.00" timeLoss="29.12" rerouteNo="0" devices="tripinfo_CVToC.10 routing_CVToC.10 ssm_CVToC.10 toc_CVToC.10 driverstateCVToC.10" vType="vehLVOS735" speedFactor="0.83" vaporized=""/>
    <tripinfo id="LV.5" depart="70.80" departLane="entry_1" departPos="0.39" departSpeed="41.37" departDelay="37.00" arrival="228.70" arrivalLane="e0_1" arrivalPos="4800.00" arrivalSpeed="40.12" duration="157.90" routeLength="4999.61" waitingTime="0.00" waitingCount="0" stopTime="0.00" timeLoss="37.04" rerouteNo="0" devices="tripinfo_LV.5 routing_LV.5 ssm_LV.5" vType="vehLVOS315" speedFactor="1.15" vaporized=""/>
    <tripinfo id="CAVToC.18" depart="62.50" departLane="entry_1" departPos="37.53" departSpeed="28.60" departDelay="5.80" arrival="237.30" arrivalLane="e0_0" arrivalPos="4800.00" arrivalSpeed="28.42" duration="174.80" routeLength="4962.47" waitingTime="0.00" waitingCount="0" stopTime="0.00" timeLoss="1.22" rerouteNo="0" devices="tripinfo_CAVToC.18 routing_CAVToC.18 ssm_CAVToC.18 toc_CAVToC.18 driverstateCAVToC.18" vType="vehLVOS333" speedFactor="0.79" vaporized=""/>
    <tripinfo id="CAVToC.23" depart="72.90" departLane="entry_1" departPos="17.46" departSpeed="32.19" departDelay="1.40" arrival="240.90" arrivalLane="e0_1" arrivalPos="4800.00" arrivalSpeed="32.19" duration="168.00" routeLength="4982.54" waitingTime="0.00" waitingCount="0" stopTime="0.00" timeLoss="13.16" rerouteNo="0" devices="tripinfo_CAVToC.23 routing_CAVToC.23 ssm_CAVToC.23 toc_CAVToC.23 driverstateCAVToC.23" vType="vehLVOS570" speedFactor="0.89" vaporized=""/>
    <tripinfo id="CAVToC.22" depart="75.50" departLane="entry_1" departPos="11.13" departSpeed="33.20" departDelay="4.70" arrival="241.90" arrivalLane="e0_1" arrivalPos="4800.00" arrivalSpeed="33.74" duration="166.40" routeLength="4988.87" waitingTime="0.00" waitingCount="0" stopTime="0.00" timeLoss="44.57" rerouteNo="0" devices="tripinfo_CAVToC.22 routing_CAVToC.22 ssm_CAVToC.22 toc_CAVToC.22 driverstateCAVToC.22" vType="vehLVOS889" speedFactor="1.13" vaporized=""/>
    <tripinfo id="CAVToC.24" depart="78.30" departLane="entry_1" departPos="25.74" departSpeed="33.49" departDelay="4.70" arrival="243.10" arrivalLane="e0_1" arrivalPos="4800.00" arrivalSpeed="34.23" duration="164.80" routeLength="4974.26" waitingTime="0.00" waitingCount="0" stopTime="0.00" timeLoss="28.79" rerouteNo="0" devices="tripinfo_CAVToC.24 routing_CAVToC.24 ssm_CAVToC.24 toc_CAVToC.24 driverstateCAVToC.24" vType="vehLVOS217" speedFactor="1.01" vaporized=""/>
    <tripinfo id="CVToC.26" depart="70.90" departLane="entry_0" departPos="27.32" departSpeed="26.94" departDelay="4.00" arrival="244.10" arrivalLane="e0_1" arrivalPos="4800.00" arrivalSpeed="35.35" duration="173.20" routeLength="4972.68" waitingTime="0.00" waitingCount="0" stopTime="0.00" timeLoss="64.16" rerouteNo="0" devices="tripinfo_CVToC.26 routing_CVToC.26 ssm_CVToC.26 toc_CVToC.26 driverstateCVToC.26" vType="vehLVOS525" speedFactor="1.26" vaporized=""/>
    <tripinfo id="CAVToC.25" depart="80.80" departLane="entry_1" departPos="35.46" departSpeed="33.60" departDelay="5.70" arrival="245.60" arrivalLane="e0_1" arrivalPos="4800.00" arrivalSpeed="35.31" duration="164.80" routeLength="4964.54" waitingTime="0.00" waitingCount="0" stopTime="0.00" timeLoss="24.14" rerouteNo="0" devices="tripinfo_CAVToC.25 routing_CAVToC.25 ssm_CAVToC.25 toc_CAVToC.25 driverstateCAVToC.25" vType="vehLVOS609" speedFactor="0.98" vaporized=""/>
    <tripinfo id="CAVToC.26" depart="82.30" departLane="entry_1" departPos="12.52" departSpeed="33.29" departDelay="6.20" arrival="248.70" arrivalLane="e0_1" arrivalPos="4800.00" arrivalSpeed="33.29" duration="166.40" routeLength="4987.48" waitingTime="0.00" waitingCount="0" stopTime="0.00" timeLoss="16.55" rerouteNo="0" devices="tripinfo_CAVToC.26 routing_CAVToC.26 ssm_CAVToC.26 toc_CAVToC.26 driverstateCAVToC.26" vType="vehLVOS636" speedFactor="0.92" vaporized=""/>
    <tripinfo id="CAVToC.13" depart="41.20" departLane="entry_0" departPos="10.12" departSpeed="24.43" departDelay="4.80" arrival="248.90" arrivalLane="e0_0" arrivalPos="4800.00" arrivalSpeed="24.38" duration="207.70" routeLength="4989.88" waitingTime="0.00" waitingCount="0" stopTime="0.00" timeLoss="3.46" rerouteNo="0" devices="tripinfo_CAVToC.13 routing_CAVToC.13 ssm_CAVToC.13 toc_CAVToC.13 driverstateCAVToC.13" vType="vehLVOS253" speedFactor="0.68" vaporized=""/>
    <tripinfo id="CVToC.14" depart="44.60" departLane="entry_0" departPos="15.26" departSpeed="25.69" departDelay="5.70" arrival="250.40" arrivalLane="e0_0" arrivalPos="4800.00" arrivalSpeed="27.81" duration="205.80" routeLength="4984.74" waitingTime="0.00" waitingCount="0" stopTime="0.00" timeLoss="67.52" rerouteNo="0" devices="tripinfo_CVToC.14 routing_CVToC.14 ssm_CVToC.14 toc_CVToC.14 driverstateCVToC.14" vType="vehLVOS706" speedFactor="1.00" vaporized=""/>
    <tripinfo id="CAVToC.21" depart="77.10" departLane="entry_0" departPos="21.48" departSpeed="28.94" departDelay="7.30" arrival="251.10" arrivalLane="e0_1" arrivalPos="4800.00" arrivalSpeed="35.38" duration="174.00" routeLength="4978.52" waitingTime="0.00" waitingCount="0" stopTime="0.00" timeLoss="56.09" rerouteNo="0" devices="tripinfo_CAVToC.21 routing_CAVToC.21 ssm_CAVToC.21 toc_CAVToC.21 driverstateCAVToC.21" vType="vehLVOS972" speedFactor="1.17" vaporized=""/>
    <tripinfo id="CVToC.16" depart="47.30" departLane="entry_0" departPos="9.81" departSpeed="26.45" departDelay="6.90" arrival="251.80" arrivalLane="e0_0" arrivalPos="4800.00" arrivalSpeed="30.04" duration="204.50" routeLength="4990.19" waitingTime="0.00" waitingCount="0" stopTime="0.00" timeLoss="57.07" rerouteNo="0" devices="tripinfo_CVToC.16 routing_CVToC.16 ssm_CVToC.16 toc_CVToC.16 driverstateCVToC.16" vType="vehLVOS319" speedFactor="0.94" vaporized=""/>
    <tripinfo id="CAVToC.28" depart="85.60" departLane="entry_0" departPos="5.13" departSpeed="33.83" departDelay="8.70" arrival="252.40" arrivalLane="e0_1" arrivalPos="4800.00" arrivalSpeed="34.98" duration="166.80" routeLength="4994.87" waitingTime="0.00" waitingCount="0" stopTime="0.00" timeLoss="23.99" rerouteNo="0" devices="tripinfo_CAVToC.28 routing_CAVToC.28 ssm_CAVToC.28 toc_CAVToC.28 driverstateCAVToC.28" vType="vehLVOS72" speedFactor="0.97" vaporized=""/>
    <tripinfo id="CAVToC.27" depart="85.10" departLane="entry_1" departPos="25.27" departSpeed="32.96" departDelay="8.50" arrival="253.70" arrivalLane="e0_1" arrivalPos="4800.00" arrivalSpeed="35.64" duration="168.60" routeLength="4974.73" waitingTime="0.00" waitingCount="0" stopTime="0.00" timeLoss="29.08" rerouteNo="0" devices="tripinfo_CAVToC.27 routing_CAVToC.27 ssm_CAVToC.27 toc_CAVToC.27 driverstateCAVToC.27" vType="vehLVOS44" speedFactor="0.99" vaporized=""/>
    <tripinfo id="CVToC.18" depart="49.90" departLane="entry_0" departPos="2.53" departSpeed="27.17" departDelay="6.60" arrival="254.00" arrivalLane="e0_0" arrivalPos="4800.00" arrivalSpeed="32.75" duration="204.10" routeLength="4997.47" waitingTime="0.00" waitingCount="0" stopTime="0.00" timeLoss="59.60" rerouteNo="0" devices="tripinfo_CVToC.18 routing_CVToC.18 ssm_CVToC.18 toc_CVToC.18 driverstateCVToC.18" vType="vehLVOS265" speedFactor="0.96" vaporized=""/>
    <tripinfo id="CVToC.21" depart="53.10" departLane="entry_0" departPos="13.71" departSpeed="27.12" departDelay="3.90" arrival="255.20" arrivalLane="e0_0" arrivalPos="4800.00" arrivalSpeed="31.70" duration="202.10" routeLength="4986.29" waitingTime="0.00" waitingCount="0" stopTime="0.00" timeLoss="57.49" rerouteNo="0" devices="tripinfo_CVToC.21 routing_CVToC.21 ssm_CVToC.21 toc_CVToC.21 driverstateCVToC.21" vType="vehLVOS432" speedFactor="0.96" vaporized=""/>
    <tripinfo id="LV.7" depart="59.50" departLane="entry_0" departPos="83.80" departSpeed="26.42" departDelay="3.70" arrival="256.80" arrivalLane="e0_0" arrivalPos="4800.00" arrivalSpeed="26.42" duration="197.30" routeLength="4916.20" waitingTime="0.00" waitingCount="0" stopTime="0.00" timeLoss="11.20" rerouteNo="0" devices="tripinfo_LV.7 routing_LV.7 ssm_LV.7" vType="vehLVOS24" speedFactor="0.73" vaporized=""/>
    <tripinfo id="LV.4" depart="83.50" departLane="entry_0" departPos="3.73" departSpeed="36.28" departDelay="52.80" arrival="257.10" arrivalLane="e0_1" arrivalPos="4800.00" arrivalSpeed="36.20" duration="173.60" routeLength="4996.27" waitingTime="0.00" waitingCount="0" stopTime="0.00" timeLoss="35.82" rerouteNo="0" devices="tripinfo_LV.4 routing_LV.4 ssm_LV.4" vType="vehLVOS504" speedFactor="1.00" vaporized=""/>
    <tripinfo id="CAVToC.20" depart="59.50" departLane="entry_0" departPos="8.29" departSpeed="27.32" departDelay="1.80" arrival="258.80" arrivalLane="e0_0" arrivalPos="4800.00" arrivalSpeed="28.53" duration="199.30" routeLength="4991.71" waitingTime="0.00" waitingCount="0" stopTime="0.00" timeLoss="54.07" rerouteNo="0" devices="tripinfo_CAVToC.20 routing_CAVToC.20 ssm_CAVToC.20 toc_CAVToC.20 driverstateCAVToC.20" vType="vehLVOS581" speedFactor="0.95" vaporized=""/>