<?xml version="1.0" encoding="UTF-8"?>

<!-- generated on 09/23/20 16:03:31 by Eclipse SUMO Version 1.6.0
<configuration xmlns:xsi="http://www.w3.org/2001/XMLSchema-instance" xsi:noNamespaceSchemaLocation="http://sumo.dlr.de/xsd/sumoConfiguration.xsd">

    <input>
        <net-file value="scenario/UC5_1.net.xml"/>
        <route-files value="scenario/routes_trafficMix_0_trafficDemand_1_driverBehaviour_OS_seed_0.xml"/>
        <additional-files value="scenario/additionalsOutput_trafficMix_0_trafficDemand_1_driverBehaviour_OS_seed_0.xml,scenario/vTypesCAVToC_OS.add.xml,scenario/vTypesCVToC_OS.add.xml,scenario/vTypesLV_OS.add.xml,scenario/shapes.add.xml,scenario/view.add.xml"/>
    </input>

    <output>
        <tripinfo-output value="C:\Users\laborknecht\Aris\workspace\ma-branch\tor-distribution/outputs/simulations/DQN__2020-09-23_11-07-42__20200923-155324/tripinfo_2.xml"/>
    </output>

    <time>
        <step-length value="0.1"/>
    </time>

    <processing>
        <step-method.ballistic value="true"/>
        <ignore-route-errors value="true"/>
        <lanechange.duration value="2.5"/>
    </processing>

    <report>
        <no-step-log value="true"/>
    </report>

    <toc_device>
        <device.toc.ogNewTimeHeadway value="100"/>
        <device.toc.ogNewSpaceHeadway value="5"/>
        <device.toc.ogMaxDecel value="1"/>
        <device.toc.ogChangeRate value="1"/>
    </toc_device>

    <traci_server>
        <remote-port value="52342"/>
    </traci_server>

    <random_number>
        <seed value="1026"/>
    </random_number>

    <gui_only>
        <tracker-interval value="0.1"/>
    </gui_only>

</configuration>
-->

<tripinfos xmlns:xsi="http://www.w3.org/2001/XMLSchema-instance" xsi:noNamespaceSchemaLocation="http://sumo.dlr.de/xsd/tripinfo_file.xsd">
    <tripinfo id="CAVToC.0" depart="2.30" departLane="entry_1" departPos="199.90" departSpeed="37.60" departDelay="0.00" arrival="130.10" arrivalLane="e0_1" arrivalPos="4800.00" arrivalSpeed="37.56" duration="127.80" routeLength="4800.10" waitingTime="0.00" waitingCount="0" stopTime="0.00" timeLoss="0.12" rerouteNo="0" devices="tripinfo_CAVToC.0 routing_CAVToC.0 ssm_CAVToC.0 toc_CAVToC.0 driverstateCAVToC.0" vType="vehLVOS186" speedFactor="1.04" vaporized=""/>
    <tripinfo id="CVToC.1" depart="3.40" departLane="entry_0" departPos="199.90" departSpeed="40.66" departDelay="0.00" arrival="131.10" arrivalLane="e0_0" arrivalPos="4800.00" arrivalSpeed="39.42" duration="127.70" routeLength="4800.10" waitingTime="0.00" waitingCount="0" stopTime="0.00" timeLoss="9.62" rerouteNo="0" devices="tripinfo_CVToC.1 routing_CVToC.1 ssm_CVToC.1 toc_CVToC.1 driverstateCVToC.1" vType="vehLVOS82" speedFactor="1.13" vaporized=""/>
    <tripinfo id="CVToC.4" depart="9.60" departLane="entry_1" departPos="95.47" departSpeed="36.40" departDelay="0.20" arrival="137.90" arrivalLane="e0_0" arrivalPos="4800.00" arrivalSpeed="40.44" duration="128.30" routeLength="4904.53" waitingTime="0.00" waitingCount="0" stopTime="0.00" timeLoss="7.18" rerouteNo="0" devices="tripinfo_CVToC.4 routing_CVToC.4 ssm_CVToC.4 toc_CVToC.4 driverstateCVToC.4" vType="vehLVOS294" speedFactor="1.12" vaporized=""/>
    <tripinfo id="CVToC.3" depart="4.90" departLane="entry_1" departPos="134.06" departSpeed="32.11" departDelay="0.00" arrival="140.40" arrivalLane="e0_0" arrivalPos="4800.00" arrivalSpeed="36.92" duration="135.50" routeLength="4865.94" waitingTime="0.00" waitingCount="0" stopTime="0.00" timeLoss="3.99" rerouteNo="0" devices="tripinfo_CVToC.3 routing_CVToC.3 ssm_CVToC.3 toc_CVToC.3 driverstateCVToC.3" vType="vehLVOS366" speedFactor="1.03" vaporized=""/>
    <tripinfo id="LV.0" depart="6.70" departLane="entry_1" departPos="72.45" departSpeed="36.64" departDelay="0.00" arrival="143.30" arrivalLane="e0_0" arrivalPos="4800.00" arrivalSpeed="36.63" duration="136.60" routeLength="4927.55" waitingTime="0.00" waitingCount="0" stopTime="0.00" timeLoss="2.05" rerouteNo="0" devices="tripinfo_LV.0 routing_LV.0 ssm_LV.0" vType="vehLVOS214" speedFactor="1.01" vaporized=""/>
    <tripinfo id="CAVToC.3" depart="11.10" departLane="entry_0" departPos="4.97" departSpeed="32.83" departDelay="0.50" arrival="146.40" arrivalLane="e0_0" arrivalPos="4800.00" arrivalSpeed="37.60" duration="135.30" routeLength="4995.03" waitingTime="0.00" waitingCount="0" stopTime="0.00" timeLoss="2.48" rerouteNo="0" devices="tripinfo_CAVToC.3 routing_CAVToC.3 ssm_CAVToC.3 toc_CAVToC.3 driverstateCAVToC.3" vType="vehLVOS164" speedFactor="1.04" vaporized=""/>
    <tripinfo id="LV.2" depart="12.20" departLane="entry_1" departPos="2.89" departSpeed="31.83" departDelay="2.20" arrival="147.90" arrivalLane="e0_1" arrivalPos="4800.00" arrivalSpeed="43.49" duration="135.70" routeLength="4997.11" waitingTime="0.00" waitingCount="0" stopTime="0.00" timeLoss="26.12" rerouteNo="0" devices="tripinfo_LV.2 routing_LV.2 ssm_LV.2" vType="vehLVOS150" speedFactor="1.26" vaporized=""/>
    <tripinfo id="LV.3" depart="13.40" departLane="entry_0" departPos="63.20" departSpeed="28.26" departDelay="0.50" arrival="152.00" arrivalLane="e0_0" arrivalPos="4800.00" arrivalSpeed="36.64" duration="138.60" routeLength="4936.80" waitingTime="0.00" waitingCount="0" stopTime="0.00" timeLoss="3.97" rerouteNo="0" devices="tripinfo_LV.3 routing_LV.3 ssm_LV.3" vType="vehLVOS711" speedFactor="1.02" vaporized=""/>
    <tripinfo id="CAVToC.4" depart="16.20" departLane="entry_1" departPos="42.19" departSpeed="33.72" departDelay="0.00" arrival="152.80" arrivalLane="e0_1" arrivalPos="4800.00" arrivalSpeed="42.23" duration="136.60" routeLength="4957.81" waitingTime="0.00" waitingCount="0" stopTime="0.00" timeLoss="19.26" rerouteNo="0" devices="tripinfo_CAVToC.4 routing_CAVToC.4 ssm_CAVToC.4 toc_CAVToC.4 driverstateCAVToC.4" vType="vehLVOS392" speedFactor="1.17" vaporized=""/>
    <tripinfo id="LV.1" depart="7.50" departLane="entry_0" departPos="25.08" departSpeed="38.64" departDelay="0.00" arrival="155.50" arrivalLane="e0_1" arrivalPos="4800.00" arrivalSpeed="38.62" duration="148.00" routeLength="4974.92" waitingTime="0.00" waitingCount="0" stopTime="0.00" timeLoss="19.15" rerouteNo="0" devices="tripinfo_LV.1 routing_LV.1 ssm_LV.1" vType="vehLVOS626" speedFactor="1.07" vaporized=""/>
    <tripinfo id="CVToC.0" depart="2.80" departLane="entry_1" departPos="150.81" departSpeed="31.43" departDelay="0.00" arrival="157.30" arrivalLane="e0_0" arrivalPos="4800.00" arrivalSpeed="31.41" duration="154.50" routeLength="4849.19" waitingTime="0.00" waitingCount="0" stopTime="0.00" timeLoss="0.17" rerouteNo="0" devices="tripinfo_CVToC.0 routing_CVToC.0 ssm_CVToC.0 toc_CVToC.0 driverstateCVToC.0" vType="vehLVOS285" speedFactor="0.87" vaporized=""/>
    <tripinfo id="CVToC.7" depart="21.10" departLane="entry_1" departPos="5.77" departSpeed="31.90" departDelay="0.40" arrival="157.80" arrivalLane="e0_1" arrivalPos="4800.00" arrivalSpeed="41.11" duration="136.70" routeLength="4994.23" waitingTime="0.00" waitingCount="0" stopTime="0.00" timeLoss="15.22" rerouteNo="0" devices="tripinfo_CVToC.7 routing_CVToC.7 ssm_CVToC.7 toc_CVToC.7 driverstateCVToC.7" vType="vehLVOS9" speedFactor="1.14" vaporized=""/>
    <tripinfo id="CVToC.2" depart="4.40" departLane="entry_0" departPos="160.40" departSpeed="38.08" departDelay="0.00" arrival="158.50" arrivalLane="e0_0" arrivalPos="4800.00" arrivalSpeed="33.36" duration="154.10" routeLength="4839.60" waitingTime="0.00" waitingCount="0" stopTime="0.00" timeLoss="26.99" rerouteNo="0" devices="tripinfo_CVToC.2 routing_CVToC.2 ssm_CVToC.2 toc_CVToC.2 driverstateCVToC.2" vType="vehLVOS145" speedFactor="1.05" vaporized=""/>
    <tripinfo id="CAVToC.1" depart="5.20" departLane="entry_0" departPos="100.96" departSpeed="36.79" departDelay="0.00" arrival="160.90" arrivalLane="e0_0" arrivalPos="4800.00" arrivalSpeed="36.20" duration="155.70" routeLength="4899.04" waitingTime="0.00" waitingCount="0" stopTime="0.00" timeLoss="37.29" rerouteNo="0" devices="tripinfo_CAVToC.1 routing_CAVToC.1 ssm_CAVToC.1 toc_CAVToC.1 driverstateCAVToC.1" vType="vehLVOS909" speedFactor="1.15" vaporized=""/>
    <tripinfo id="CVToC.9" depart="24.00" departLane="entry_1" departPos="16.90" departSpeed="32.54" departDelay="0.20" arrival="161.40" arrivalLane="e0_1" arrivalPos="4800.00" arrivalSpeed="39.17" duration="137.40" routeLength="4983.10" waitingTime="0.00" waitingCount="0" stopTime="0.00" timeLoss="10.16" rerouteNo="0" devices="tripinfo_CVToC.9 routing_CVToC.9 ssm_CVToC.9 toc_CVToC.9 driverstateCVToC.9" vType="vehLVOS361" speedFactor="1.08" vaporized=""/>
    <tripinfo id="LV.4" depart="17.10" departLane="entry_1" departPos="27.44" departSpeed="34.53" departDelay="0.00" arrival="162.50" arrivalLane="e0_0" arrivalPos="4800.00" arrivalSpeed="34.46" duration="145.40" routeLength="4972.56" waitingTime="0.00" waitingCount="0" stopTime="0.00" timeLoss="1.37" rerouteNo="0" devices="tripinfo_LV.4 routing_LV.4 ssm_LV.4" vType="vehLVOS44" speedFactor="0.96" vaporized=""/>
    <tripinfo id="CAVToC.6" depart="19.80" departLane="entry_0" departPos="16.63" departSpeed="34.97" departDelay="0.10" arrival="163.50" arrivalLane="e0_1" arrivalPos="4800.00" arrivalSpeed="40.18" duration="143.70" routeLength="4983.37" waitingTime="0.00" waitingCount="0" stopTime="0.00" timeLoss="19.60" rerouteNo="0" devices="tripinfo_CAVToC.6 routing_CAVToC.6 ssm_CAVToC.6 toc_CAVToC.6 driverstateCAVToC.6" vType="vehLVOS734" speedFactor="1.11" vaporized=""/>
    <tripinfo id="CAVToC.2" depart="8.70" departLane="entry_0" departPos="5.62" departSpeed="32.19" departDelay="0.00" arrival="165.50" arrivalLane="e0_0" arrivalPos="4800.00" arrivalSpeed="32.15" duration="156.80" routeLength="4994.38" waitingTime="0.00" waitingCount="0" stopTime="0.00" timeLoss="1.60" rerouteNo="0" devices="tripinfo_CAVToC.2 routing_CAVToC.2 ssm_CAVToC.2 toc_CAVToC.2 driverstateCAVToC.2" vType="vehLVOS297" speedFactor="0.89" vaporized=""/>
    <tripinfo id="CAVToC.5" depart="16.50" departLane="entry_0" departPos="66.84" departSpeed="35.80" departDelay="0.00" arrival="166.50" arrivalLane="e0_0" arrivalPos="4800.00" arrivalSpeed="34.24" duration="150.00" routeLength="4933.16" waitingTime="0.00" waitingCount="0" stopTime="0.00" timeLoss="33.42" rerouteNo="0" devices="tripinfo_CAVToC.5 routing_CAVToC.5 ssm_CAVToC.5 toc_CAVToC.5 driverstateCAVToC.5" vType="vehLVOS507" speedFactor="1.17" vaporized=""/>
    <tripinfo id="CVToC.5" depart="17.60" departLane="entry_0" departPos="31.39" departSpeed="33.77" departDelay="0.10" arrival="166.60" arrivalLane="e0_1" arrivalPos="4800.00" arrivalSpeed="34.68" duration="149.00" routeLength="4968.61" waitingTime="0.00" waitingCount="0" stopTime="0.00" timeLoss="5.77" rerouteNo="0" devices="tripinfo_CVToC.5 routing_CVToC.5 ssm_CVToC.5 toc_CVToC.5 driverstateCVToC.5" vType="vehLVOS17" speedFactor="0.96" vaporized=""/>
    <tripinfo id="LV.5" depart="28.50" departLane="entry_1" departPos="2.29" departSpeed="37.00" departDelay="5.40" arrival="177.40" arrivalLane="e0_1" arrivalPos="4800.00" arrivalSpeed="36.98" duration="148.90" routeLength="4997.71" waitingTime="0.00" waitingCount="0" stopTime="0.00" timeLoss="13.81" rerouteNo="0" devices="tripinfo_LV.5 routing_LV.5 ssm_LV.5" vType="vehLVOS671" speedFactor="1.02" vaporized=""/>
    <tripinfo id="CAVToC.7" depart="25.90" departLane="entry_1" departPos="9.36" departSpeed="32.58" departDelay="0.30" arrival="178.00" arrivalLane="e0_0" arrivalPos="4800.00" arrivalSpeed="33.28" duration="152.10" routeLength="4990.64" waitingTime="0.00" waitingCount="0" stopTime="0.00" timeLoss="2.20" rerouteNo="0" devices="tripinfo_CAVToC.7 routing_CAVToC.7 ssm_CAVToC.7 toc_CAVToC.7 driverstateCAVToC.7" vType="vehLVOS217" speedFactor="0.92" vaporized=""/>
    <tripinfo id="CAVToC.10" depart="31.80" departLane="entry_1" departPos="40.75" departSpeed="30.70" departDelay="0.20" arrival="180.30" arrivalLane="e0_1" arrivalPos="4800.00" arrivalSpeed="35.07" duration="148.50" routeLength="4959.25" waitingTime="0.00" waitingCount="0" stopTime="0.00" timeLoss="7.37" rerouteNo="0" devices="tripinfo_CAVToC.10 routing_CAVToC.10 ssm_CAVToC.10 toc_CAVToC.10 driverstateCAVToC.10" vType="vehLVOS775" speedFactor="0.97" vaporized=""/>
    <tripinfo id="CVToC.6" depart="18.30" departLane="entry_1" departPos="4.74" departSpeed="30.79" departDelay="0.00" arrival="180.90" arrivalLane="e0_0" arrivalPos="4800.00" arrivalSpeed="30.71" duration="162.60" routeLength="4995.26" waitingTime="0.00" waitingCount="0" stopTime="0.00" timeLoss="0.28" rerouteNo="0" devices="tripinfo_CVToC.6 routing_CVToC.6 ssm_CVToC.6 toc_CVToC.6 driverstateCVToC.6" vType="vehLVOS915" speedFactor="0.85" vaporized=""/>
    <tripinfo id="CVToC.8" depart="22.50" departLane="entry_0" departPos="2.54" departSpeed="29.87" departDelay="1.30" arrival="182.00" arrivalLane="e0_0" arrivalPos="4800.00" arrivalSpeed="31.54" duration="159.50" routeLength="4997.46" waitingTime="0.00" waitingCount="0" stopTime="0.00" timeLoss="49.84" rerouteNo="0" devices="tripinfo_CVToC.8 routing_CVToC.8 ssm_CVToC.8 toc_CVToC.8 driverstateCVToC.8" vType="vehLVOS266" speedFactor="1.26" vaporized=""/>
    <tripinfo id="CAVToC.8" depart="29.30" departLane="entry_0" departPos="52.65" departSpeed="30.58" departDelay="0.00" arrival="182.00" arrivalLane="e0_1" arrivalPos="4800.00" arrivalSpeed="34.32" duration="152.70" routeLength="4947.35" waitingTime="0.00" waitingCount="0" stopTime="0.00" timeLoss="8.44" rerouteNo="0" devices="tripinfo_CAVToC.8 routing_CAVToC.8 ssm_CAVToC.8 toc_CAVToC.8 driverstateCAVToC.8" vType="vehLVOS131" speedFactor="0.95" vaporized=""/>
    <tripinfo id="CVToC.10" depart="25.40" departLane="entry_0" departPos="7.41" departSpeed="30.43" departDelay="0.80" arrival="183.40" arrivalLane="e0_0" arrivalPos="4800.00" arrivalSpeed="33.58" duration="158.00" routeLength="4992.59" waitingTime="0.00" waitingCount="0" stopTime="0.00" timeLoss="20.78" rerouteNo="0" devices="tripinfo_CVToC.10 routing_CVToC.10 ssm_CVToC.10 toc_CVToC.10 driverstateCVToC.10" vType="vehLVOS788" speedFactor="1.01" vaporized=""/>
    <tripinfo id="CAVToC.12" depart="35.80" departLane="entry_1" departPos="52.48" departSpeed="30.08" departDelay="0.00" arrival="184.10" arrivalLane="e0_1" arrivalPos="4800.00" arrivalSpeed="35.14" duration="148.30" routeLength="4947.52" waitingTime="0.00" waitingCount="0" stopTime="0.00" timeLoss="7.78" rerouteNo="0" devices="tripinfo_CAVToC.12 routing_CAVToC.12 ssm_CAVToC.12 toc_CAVToC.12 driverstateCAVToC.12" vType="vehLVOS528" speedFactor="0.98" vaporized=""/>
    <tripinfo id="CVToC.12" depart="37.90" departLane="entry_1" departPos="19.82" departSpeed="31.43" departDelay="0.50" arrival="185.70" arrivalLane="e0_1" arrivalPos="4800.00" arrivalSpeed="37.98" duration="147.80" routeLength="4980.18" waitingTime="0.00" waitingCount="0" stopTime="0.00" timeLoss="34.59" rerouteNo="0" devices="tripinfo_CVToC.12 routing_CVToC.12 ssm_CVToC.12 toc_CVToC.12 driverstateCVToC.12" vType="vehLVOS349" speedFactor="1.22" vaporized=""/>
    <tripinfo id="CAVToC.13" depart="40.30" departLane="entry_1" departPos="17.13" departSpeed="31.84" departDelay="1.10" arrival="191.00" arrivalLane="e0_0" arrivalPos="4800.00" arrivalSpeed="35.44" duration="150.70" routeLength="4982.87" waitingTime="0.00" waitingCount="0" stopTime="0.00" timeLoss="10.16" rerouteNo="0" devices="tripinfo_CAVToC.13 routing_CAVToC.13 ssm_CAVToC.13 toc_CAVToC.13 driverstateCAVToC.13" vType="vehLVOS512" speedFactor="0.98" vaporized=""/>
    <tripinfo id="LV.11" depart="45.10" departLane="entry_1" departPos="4.04" departSpeed="42.28" departDelay="2.90" arrival="192.70" arrivalLane="e0_1" arrivalPos="4800.00" arrivalSpeed="39.37" duration="147.60" routeLength="4995.96" waitingTime="0.00" waitingCount="0" stopTime="0.00" timeLoss="29.39" rerouteNo="0" devices="tripinfo_LV.11 routing_LV.11 ssm_LV.11" vType="vehLVOS258" speedFactor="1.17" vaporized=""/>
    <tripinfo id="LV.9" depart="44.70" departLane="entry_0" departPos="7.18" departSpeed="41.31" departDelay="8.50" arrival="194.00" arrivalLane="e0_1" arrivalPos="4800.00" arrivalSpeed="39.89" duration="149.30" routeLength="4992.82" waitingTime="0.00" waitingCount="0" stopTime="0.00" timeLoss="28.38" rerouteNo="0" devices="tripinfo_LV.9 routing_LV.9 ssm_LV.9" vType="vehLVOS316" speedFactor="1.14" vaporized=""/>
    <tripinfo id="LV.7" depart="31.70" departLane="entry_1" departPos="111.46" departSpeed="30.12" departDelay="0.00" arrival="194.30" arrivalLane="e0_0" arrivalPos="4800.00" arrivalSpeed="30.10" duration="162.60" routeLength="4888.54" waitingTime="0.00" waitingCount="0" stopTime="0.00" timeLoss="0.26" rerouteNo="0" devices="tripinfo_LV.7 routing_LV.7 ssm_LV.7" vType="vehLVOS909" speedFactor="0.83" vaporized=""/>
    <tripinfo id="CAVToC.14" depart="47.00" departLane="entry_1" departPos="0.36" departSpeed="36.44" departDelay="4.30" arrival="195.00" arrivalLane="e0_1" arrivalPos="4800.00" arrivalSpeed="38.64" duration="148.00" routeLength="4999.64" waitingTime="0.00" waitingCount="0" stopTime="0.00" timeLoss="18.55" rerouteNo="0" devices="tripinfo_CAVToC.14 routing_CAVToC.14 ssm_CAVToC.14 toc_CAVToC.14 driverstateCAVToC.14" vType="vehLVOS844" speedFactor="1.07" vaporized=""/>
    <tripinfo id="CAVToC.9" depart="30.60" departLane="entry_0" departPos="10.24" departSpeed="31.22" departDelay="0.90" arrival="196.00" arrivalLane="e0_0" arrivalPos="4800.00" arrivalSpeed="33.38" duration="165.40" routeLength="4989.76" waitingTime="0.00" waitingCount="0" stopTime="0.00" timeLoss="30.12" rerouteNo="0" devices="tripinfo_CAVToC.9 routing_CAVToC.9 ssm_CAVToC.9 toc_CAVToC.9 driverstateCAVToC.9" vType="vehLVOS43" speedFactor="1.02" vaporized=""/>
    <tripinfo id="CVToC.15" depart="49.10" departLane="entry_1" departPos="6.18" departSpeed="32.77" departDelay="2.00" arrival="203.40" arrivalLane="e0_1" arrivalPos="4800.00" arrivalSpeed="32.74" duration="154.30" routeLength="4993.82" waitingTime="0.00" waitingCount="0" stopTime="0.00" timeLoss="1.84" rerouteNo="0" devices="tripinfo_CVToC.15 routing_CVToC.15 ssm_CVToC.15 toc_CVToC.15 driverstateCVToC.15" vType="vehLVOS961" speedFactor="0.91" vaporized=""/>
    <tripinfo id="LV.8" depart="34.40" departLane="entry_1" departPos="86.96" departSpeed="29.85" departDelay="0.20" arrival="203.70" arrivalLane="e0_0" arrivalPos="4800.00" arrivalSpeed="29.74" duration="169.30" routeLength="4913.04" waitingTime="0.00" waitingCount="0" stopTime="0.00" timeLoss="4.66" rerouteNo="0" devices="tripinfo_LV.8 routing_LV.8 ssm_LV.8" vType="vehLVOS366" speedFactor="0.83" vaporized=""/>
    <tripinfo id="CAVToC.11" depart="33.60" departLane="entry_0" departPos="25.94" departSpeed="30.71" departDelay="0.10" arrival="204.60" arrivalLane="e0_0" arrivalPos="4800.00" arrivalSpeed="31.70" duration="171.00" routeLength="4974.06" waitingTime="0.00" waitingCount="0" stopTime="0.00" timeLoss="30.94" rerouteNo="0" devices="tripinfo_CAVToC.11 routing_CAVToC.11 ssm_CAVToC.11 toc_CAVToC.11 driverstateCAVToC.11" vType="vehLVOS860" speedFactor="0.98" vaporized=""/>
    <tripinfo id="CAVToC.17" depart="51.30" departLane="entry_1" departPos="4.51" departSpeed="33.04" departDelay="0.30" arrival="205.60" arrivalLane="e0_1" arrivalPos="4800.00" arrivalSpeed="34.41" duration="154.30" routeLength="4995.49" waitingTime="0.00" waitingCount="0" stopTime="0.00" timeLoss="9.13" rerouteNo="0" devices="tripinfo_CAVToC.17 routing_CAVToC.17 ssm_CAVToC.17 toc_CAVToC.17 driverstateCAVToC.17" vType="vehLVOS89" speedFactor="0.95" vaporized=""/>
    <tripinfo id="CVToC.11" depart="37.80" departLane="entry_0" departPos="59.71" departSpeed="30.23" departDelay="0.70" arrival="205.70" arrivalLane="e0_0" arrivalPos="4800.00" arrivalSpeed="31.61" duration="167.90" routeLength="4940.29" waitingTime="0.00" waitingCount="0" stopTime="0.00" timeLoss="45.43" rerouteNo="0" devices="tripinfo_CVToC.11 routing_CVToC.11 ssm_CVToC.11 toc_CVToC.11 driverstateCVToC.11" vType="vehLVOS516" speedFactor="1.12" vaporized=""/>
    <tripinfo id="CVToC.13" depart="53.80" departLane="entry_1" departPos="6.54" departSpeed="33.44" departDelay="11.20" arrival="207.70" arrivalLane="e0_1" arrivalPos="4800.00" arrivalSpeed="36.69" duration="153.90" routeLength="4993.46" waitingTime="0.00" waitingCount="0" stopTime="0.00" timeLoss="18.11" rerouteNo="0" devices="tripinfo_CVToC.13 routing_CVToC.13 ssm_CVToC.13 toc_CVToC.13 driverstateCVToC.13" vType="vehLVOS852" speedFactor="1.02" vaporized=""/>
    <tripinfo id="LV.10" depart="39.10" departLane="entry_0" departPos="9.78" departSpeed="32.26" departDelay="0.20" arrival="208.00" arrivalLane="e0_0" arrivalPos="4800.00" arrivalSpeed="32.24" duration="168.90" routeLength="4990.22" waitingTime="0.00" waitingCount="0" stopTime="0.00" timeLoss="14.21" rerouteNo="0" devices="tripinfo_LV.10 routing_LV.10 ssm_LV.10" vType="vehLVOS214" speedFactor="0.89" vaporized=""/>
    <tripinfo id="CVToC.14" depart="46.50" departLane="entry_0" departPos="12.57" departSpeed="31.38" departDelay="2.20" arrival="209.10" arrivalLane="e0_0" arrivalPos="4800.00" arrivalSpeed="31.38" duration="162.60" routeLength="4987.43" waitingTime="0.00" waitingCount="0" stopTime="0.00" timeLoss="3.62" rerouteNo="0" devices="tripinfo_CVToC.14 routing_CVToC.14 ssm_CVToC.14 toc_CVToC.14 driverstateCVToC.14" vType="vehLVOS883" speedFactor="0.87" vaporized=""/>
    <tripinfo id="CAVToC.18" depart="56.60" departLane="entry_1" departPos="0.12" departSpeed="30.02" departDelay="2.40" arrival="209.10" arrivalLane="e0_1" arrivalPos="4800.00" arrivalSpeed="36.54" duration="152.50" routeLength="4999.88" waitingTime="0.00" waitingCount="0" stopTime="0.00" timeLoss="25.18" rerouteNo="0" devices="tripinfo_CAVToC.18 routing_CAVToC.18 ssm_CAVToC.18 toc_CAVToC.18 driverstateCAVToC.18" vType="vehLVOS654" speedFactor="1.09" vaporized=""/>
    <tripinfo id="CAVToC.16" depart="48.90" departLane="entry_0" departPos="16.19" departSpeed="31.64" departDelay="3.10" arrival="210.50" arrivalLane="e0_0" arrivalPos="4800.00" arrivalSpeed="32.75" duration="161.60" routeLength="4983.81" waitingTime="0.00" waitingCount="0" stopTime="0.00" timeLoss="9.83" rerouteNo="0" devices="tripinfo_CAVToC.16 routing_CAVToC.16 ssm_CAVToC.16 toc_CAVToC.16 driverstateCAVToC.16" vType="vehLVOS255" speedFactor="0.91" vaporized=""/>
    <tripinfo id="CVToC.18" depart="59.60" departLane="entry_1" departPos="4.46" departSpeed="30.83" departDelay="2.90" arrival="211.20" arrivalLane="e0_1" arrivalPos="4800.00" arrivalSpeed="38.51" duration="151.60" routeLength="4995.54" waitingTime="0.00" waitingCount="0" stopTime="0.00" timeLoss="21.96" rerouteNo="0" devices="tripinfo_CVToC.18 routing_CVToC.18 ssm_CVToC.18 toc_CVToC.18 driverstateCVToC.18" vType="vehLVOS196" speedFactor="1.07" vaporized=""/>
    <tripinfo id="LV.14" depart="62.60" departLane="entry_1" departPos="8.37" departSpeed="35.12" departDelay="7.40" arrival="213.60" arrivalLane="e0_1" arrivalPos="4800.00" arrivalSpeed="35.06" duration="151.00" routeLength="4991.63" waitingTime="0.00" waitingCount="0" stopTime="0.00" timeLoss="8.85" rerouteNo="0" devices="tripinfo_LV.14 routing_LV.14 ssm_LV.14" vType="vehLVOS752" speedFactor="0.97" vaporized=""/>
    <tripinfo id="CAVToC.15" depart="51.00" departLane="entry_0" departPos="2.32" departSpeed="32.20" departDelay="7.70" arrival="214.10" arrivalLane="e0_0" arrivalPos="4800.00" arrivalSpeed="36.10" duration="163.10" routeLength="4997.68" waitingTime="0.00" waitingCount="0" stopTime="0.00" timeLoss="28.08" rerouteNo="0" devices="tripinfo_CAVToC.15 routing_CAVToC.15 ssm_CAVToC.15 toc_CAVToC.15 driverstateCAVToC.15" vType="vehLVOS491" speedFactor="1.03" vaporized=""/>
    <tripinfo id="CAVToC.23" depart="64.80" departLane="entry_1" departPos="8.14" departSpeed="35.23" departDelay="2.40" arrival="214.80" arrivalLane="e0_1" arrivalPos="4800.00" arrivalSpeed="35.73" duration="150.00" routeLength="4991.86" waitingTime="0.00" waitingCount="0" stopTime="0.00" timeLoss="10.57" rerouteNo="0" devices="tripinfo_CAVToC.23 routing_CAVToC.23 ssm_CAVToC.23 toc_CAVToC.23 driverstateCAVToC.23" vType="vehLVOS346" speedFactor="0.99" vaporized=""/>
    <tripinfo id="CVToC.16" depart="54.40" departLane="entry_0" departPos="30.09" departSpeed="32.40" departDelay="4.40" arrival="215.00" arrivalLane="e0_0" arrivalPos="4800.00" arrivalSpeed="36.17" duration="160.60" routeLength="4969.91" waitingTime="0.00" waitingCount="0" stopTime="0.00" timeLoss="23.23" rerouteNo="0" devices="tripinfo_CVToC.16 routing_CVToC.16 ssm_CVToC.16 toc_CVToC.16 driverstateCVToC.16" vType="vehLVOS123" speedFactor="1.00" vaporized=""/>
    <tripinfo id="LV.15" depart="67.20" departLane="entry_1" departPos="38.16" departSpeed="35.17" departDelay="0.90" arrival="216.20" arrivalLane="e0_1" arrivalPos="4800.00" arrivalSpeed="35.15" duration="149.00" routeLength="4961.84" waitingTime="0.00" waitingCount="0" stopTime="0.00" timeLoss="7.94" rerouteNo="0" devices="tripinfo_LV.15 routing_LV.15 ssm_LV.15" vType="vehLVOS541" speedFactor="0.97" vaporized=""/>
    <tripinfo id="CVToC.19" depart="69.20" departLane="entry_1" departPos="9.37" departSpeed="35.14" departDelay="2.20" arrival="218.00" arrivalLane="e0_1" arrivalPos="4800.00" arrivalSpeed="36.09" duration="148.80" routeLength="4990.63" waitingTime="0.00" waitingCount="0" stopTime="0.00" timeLoss="37.10" rerouteNo="0" devices="tripinfo_CVToC.19 routing_CVToC.19 ssm_CVToC.19 toc_CVToC.19 driverstateCVToC.19" vType="vehLVOS830" speedFactor="1.24" vaporized=""/>
    <tripinfo id="CVToC.17" depart="58.50" departLane="entry_0" departPos="11.20" departSpeed="28.46" departDelay="3.70" arrival="218.50" arrivalLane="e0_0" arrivalPos="4800.00" arrivalSpeed="32.14" duration="160.00" routeLength="4988.80" waitingTime="0.00" waitingCount="0" stopTime="0.00" timeLoss="4.78" rerouteNo="0" devices="tripinfo_CVToC.17 routing_CVToC.17 ssm_CVToC.17 toc_CVToC.17 driverstateCVToC.17" vType="vehLVOS458" speedFactor="0.89" vaporized=""/>
    <tripinfo id="LV.16" depart="70.20" departLane="entry_1" departPos="8.51" departSpeed="35.49" departDelay="2.50" arrival="221.70" arrivalLane="e0_1" arrivalPos="4800.00" arrivalSpeed="35.44" duration="151.50" routeLength="4991.49" waitingTime="0.00" waitingCount="0" stopTime="0.00" timeLoss="10.85" rerouteNo="0" devices="tripinfo_LV.16 routing_LV.16 ssm_LV.16" vType="vehLVOS22" speedFactor="0.98" vaporized=""/>
    <tripinfo id="LV.18" depart="72.00" departLane="entry_1" departPos="4.59" departSpeed="35.28" departDelay="1.30" arrival="223.60" arrivalLane="e0_0" arrivalPos="4800.00" arrivalSpeed="35.15" duration="151.60" routeLength="4995.41" waitingTime="0.00" waitingCount="0" stopTime="0.00" timeLoss="9.94" rerouteNo="0" devices="tripinfo_LV.18 routing_LV.18 ssm_LV.18" vType="vehLVOS991" speedFactor="0.98" vaporized=""/>
    <tripinfo id="LV.17" depart="70.30" departLane="entry_0" departPos="23.37" departSpeed="36.26" departDelay="1.00" arrival="224.60" arrivalLane="e0_1" arrivalPos="4800.00" arrivalSpeed="36.22" duration="154.30" routeLength="4976.63" waitingTime="0.00" waitingCount="0" stopTime="0.00" timeLoss="17.02" rerouteNo="0" devices="tripinfo_LV.17 routing_LV.17 ssm_LV.17" vType="vehLVOS178" speedFactor="1.00" vaporized=""/>
    <tripinfo id="LV.13" depart="54.70" departLane="entry_1" departPos="29.00" departSpeed="28.90" departDelay="0.50" arrival="227.80" arrivalLane="e0_0" arrivalPos="4800.00" arrivalSpeed="28.88" duration="173.10" routeLength="4971.00" waitingTime="0.00" waitingCount="0" stopTime="0.00" timeLoss="0.99" rerouteNo="0" devices="tripinfo_LV.13 routing_LV.13 ssm_LV.13" vType="vehLVOS693" speedFactor="0.80" vaporized=""/>
    <tripinfo id="CAVToC.24" depart="74.40" departLane="entry_1" departPos="2.26" departSpeed="33.79" departDelay="2.00" arrival="228.60" arrivalLane="e0_1" arrivalPos="4800.00" arrivalSpeed="37.89" duration="154.20" routeLength="4997.74" waitingTime="0.00" waitingCount="0" stopTime="0.00" timeLoss="22.28" rerouteNo="0" devices="tripinfo_CAVToC.24 routing_CAVToC.24 ssm_CAVToC.24 toc_CAVToC.24 driverstateCAVToC.24" vType="vehLVOS302" speedFactor="1.05" vaporized=""/>
    <tripinfo id="CAVToC.19" depart="56.00" departLane="entry_0" departPos="6.31" departSpeed="32.87" departDelay="0.90" arrival="229.00" arrivalLane="e0_0" arrivalPos="4800.00" arrivalSpeed="31.25" duration="173.00" routeLength="4993.69" waitingTime="0.00" waitingCount="0" stopTime="0.00" timeLoss="37.08" rerouteNo="0" devices="tripinfo_CAVToC.19 routing_CAVToC.19 ssm_CAVToC.19 toc_CAVToC.19 driverstateCAVToC.19" vType="vehLVOS726" speedFactor="1.02" vaporized=""/>
    <tripinfo id="LV.12" depart="77.90" departLane="entry_1" departPos="17.64" departSpeed="40.90" departDelay="24.20" arrival="229.40" arrivalLane="e0_1" arrivalPos="4800.00" arrivalSpeed="39.24" duration="151.50" routeLength="4982.36" waitingTime="0.00" waitingCount="0" stopTime="0.00" timeLoss="29.64" rerouteNo="0" devices="tripinfo_LV.12 routing_LV.12 ssm_LV.12" vType="vehLVOS383" speedFactor="1.13" vaporized=""/>
    <tripinfo id="CAVToC.21" depart="62.30" departLane="entry_0" departPos="24.96" departSpeed="30.17" departDelay="4.40" arrival="231.10" arrivalLane="e0_0" arrivalPos="4800.00" arrivalSpeed="32.65" duration="168.80" routeLength="4975.04" waitingTime="0.00" waitingCount="0" stopTime="0.00" timeLoss="51.36" rerouteNo="0" devices="tripinfo_CAVToC.21 routing_CAVToC.21 ssm_CAVToC.21 toc_CAVToC.21 driverstateCAVToC.21" vType="vehLVOS62" speedFactor="1.17" vaporized=""/>
    <tripinfo id="CAVToC.26" depart="79.50" departLane="entry_1" departPos="10.36" departSpeed="35.26" departDelay="0.60" arrival="233.00" arrivalLane="e0_1" arrivalPos="4800.00" arrivalSpeed="35.24" duration="153.50" routeLength="4989.64" waitingTime="0.00" waitingCount="0" stopTime="0.00" timeLoss="11.92" rerouteNo="0" devices="tripinfo_CAVToC.26 routing_CAVToC.26 ssm_CAVToC.26 toc_CAVToC.26 driverstateCAVToC.26" vType="vehLVOS43" speedFactor="0.98" vaporized=""/>