<?xml version="1.0" encoding="UTF-8"?>

<!-- generated on 09/23/20 17:32:08 by Eclipse SUMO Version 1.6.0
<configuration xmlns:xsi="http://www.w3.org/2001/XMLSchema-instance" xsi:noNamespaceSchemaLocation="http://sumo.dlr.de/xsd/sumoConfiguration.xsd">

    <input>
        <net-file value="scenario/UC5_1.net.xml"/>
        <route-files value="scenario/routes_trafficMix_0_trafficDemand_1_driverBehaviour_OS_seed_0.xml"/>
        <additional-files value="scenario/additionalsOutput_trafficMix_0_trafficDemand_1_driverBehaviour_OS_seed_0.xml,scenario/vTypesCAVToC_OS.add.xml,scenario/vTypesCVToC_OS.add.xml,scenario/vTypesLV_OS.add.xml,scenario/shapes.add.xml,scenario/view.add.xml"/>
    </input>

    <output>
        <tripinfo-output value="C:\Users\laborknecht\Aris\workspace\ma-branch\tor-distribution/outputs/simulations/DQN__2020-09-23_11-07-42__20200923-155324/tripinfo_10.xml"/>
    </output>

    <time>
        <step-length value="0.1"/>
    </time>

    <processing>
        <step-method.ballistic value="true"/>
        <ignore-route-errors value="true"/>
        <lanechange.duration value="2.5"/>
    </processing>

    <report>
        <no-step-log value="true"/>
    </report>

    <toc_device>
        <device.toc.ogNewTimeHeadway value="100"/>
        <device.toc.ogNewSpaceHeadway value="5"/>
        <device.toc.ogMaxDecel value="1"/>
        <device.toc.ogChangeRate value="1"/>
    </toc_device>

    <traci_server>
        <remote-port value="52428"/>
    </traci_server>

    <random_number>
        <seed value="1034"/>
    </random_number>

    <gui_only>
        <tracker-interval value="0.1"/>
    </gui_only>

</configuration>
-->

<tripinfos xmlns:xsi="http://www.w3.org/2001/XMLSchema-instance" xsi:noNamespaceSchemaLocation="http://sumo.dlr.de/xsd/tripinfo_file.xsd">
    <tripinfo id="CAVToC.0" depart="0.40" departLane="entry_1" departPos="199.90" departSpeed="38.23" departDelay="0.00" arrival="126.00" arrivalLane="e0_0" arrivalPos="4800.00" arrivalSpeed="38.23" duration="125.60" routeLength="4800.10" waitingTime="0.00" waitingCount="0" stopTime="0.00" timeLoss="0.00" rerouteNo="0" devices="tripinfo_CAVToC.0 routing_CAVToC.0 ssm_CAVToC.0 toc_CAVToC.0 driverstateCAVToC.0" vType="vehLVOS19" speedFactor="1.06" vaporized=""/>
    <tripinfo id="LV.0" depart="0.30" departLane="entry_0" departPos="199.90" departSpeed="37.20" departDelay="0.00" arrival="129.40" arrivalLane="e0_0" arrivalPos="4800.00" arrivalSpeed="37.16" duration="129.10" routeLength="4800.10" waitingTime="0.00" waitingCount="0" stopTime="0.00" timeLoss="0.07" rerouteNo="0" devices="tripinfo_LV.0 routing_LV.0 ssm_LV.0" vType="vehLVOS597" speedFactor="1.03" vaporized=""/>
    <tripinfo id="CVToC.0" depart="1.60" departLane="entry_0" departPos="175.80" departSpeed="34.44" departDelay="0.00" arrival="142.20" arrivalLane="e0_0" arrivalPos="4800.00" arrivalSpeed="34.34" duration="140.60" routeLength="4824.20" waitingTime="0.00" waitingCount="0" stopTime="0.00" timeLoss="0.50" rerouteNo="0" devices="tripinfo_CVToC.0 routing_CVToC.0 ssm_CVToC.0 toc_CVToC.0 driverstateCVToC.0" vType="vehLVOS869" speedFactor="0.95" vaporized=""/>
    <tripinfo id="CAVToC.1" depart="0.70" departLane="entry_1" departPos="141.00" departSpeed="34.09" departDelay="0.00" arrival="143.40" arrivalLane="e0_1" arrivalPos="4800.00" arrivalSpeed="34.04" duration="142.70" routeLength="4859.00" waitingTime="0.00" waitingCount="0" stopTime="0.00" timeLoss="0.10" rerouteNo="0" devices="tripinfo_CAVToC.1 routing_CAVToC.1 ssm_CAVToC.1 toc_CAVToC.1 driverstateCAVToC.1" vType="vehLVOS85" speedFactor="0.94" vaporized=""/>
    <tripinfo id="LV.1" depart="2.50" departLane="entry_0" departPos="86.22" departSpeed="42.96" departDelay="0.00" arrival="144.50" arrivalLane="e0_1" arrivalPos="4800.00" arrivalSpeed="36.58" duration="142.00" routeLength="4913.78" waitingTime="0.00" waitingCount="0" stopTime="0.00" timeLoss="27.61" rerouteNo="0" devices="tripinfo_LV.1 routing_LV.1 ssm_LV.1" vType="vehLVOS538" speedFactor="1.19" vaporized=""/>
    <tripinfo id="CVToC.1" depart="5.10" departLane="entry_1" departPos="5.60" departSpeed="35.42" departDelay="1.00" arrival="145.60" arrivalLane="e0_1" arrivalPos="4800.00" arrivalSpeed="38.77" duration="140.50" routeLength="4994.40" waitingTime="0.00" waitingCount="0" stopTime="0.00" timeLoss="30.43" rerouteNo="0" devices="tripinfo_CVToC.1 routing_CVToC.1 ssm_CVToC.1 toc_CVToC.1 driverstateCVToC.1" vType="vehLVOS77" speedFactor="1.26" vaporized=""/>
    <tripinfo id="LV.3" depart="4.20" departLane="entry_0" departPos="22.95" departSpeed="37.17" departDelay="0.30" arrival="145.70" arrivalLane="e0_0" arrivalPos="4800.00" arrivalSpeed="36.97" duration="141.50" routeLength="4977.05" waitingTime="0.00" waitingCount="0" stopTime="0.00" timeLoss="7.50" rerouteNo="0" devices="tripinfo_LV.3 routing_LV.3 ssm_LV.3" vType="vehLVOS180" speedFactor="1.03" vaporized=""/>
    <tripinfo id="CVToC.2" depart="7.40" departLane="entry_1" departPos="1.60" departSpeed="34.24" departDelay="0.80" arrival="146.90" arrivalLane="e0_1" arrivalPos="4800.00" arrivalSpeed="37.69" duration="139.50" routeLength="4998.40" waitingTime="0.00" waitingCount="0" stopTime="0.00" timeLoss="7.13" rerouteNo="0" devices="tripinfo_CVToC.2 routing_CVToC.2 ssm_CVToC.2 toc_CVToC.2 driverstateCVToC.2" vType="vehLVOS697" speedFactor="1.05" vaporized=""/>
    <tripinfo id="CAVToC.2" depart="2.20" departLane="entry_1" departPos="120.38" departSpeed="33.71" departDelay="0.00" arrival="148.80" arrivalLane="e0_0" arrivalPos="4800.00" arrivalSpeed="33.70" duration="146.60" routeLength="4879.62" waitingTime="0.00" waitingCount="0" stopTime="0.00" timeLoss="1.75" rerouteNo="0" devices="tripinfo_CAVToC.2 routing_CAVToC.2 ssm_CAVToC.2 toc_CAVToC.2 driverstateCAVToC.2" vType="vehLVOS9" speedFactor="0.93" vaporized=""/>
    <tripinfo id="LV.2" depart="2.60" departLane="entry_0" departPos="12.74" departSpeed="38.13" departDelay="0.00" arrival="149.70" arrivalLane="e0_1" arrivalPos="4800.00" arrivalSpeed="38.11" duration="147.10" routeLength="4987.26" waitingTime="0.00" waitingCount="0" stopTime="0.00" timeLoss="16.29" rerouteNo="0" devices="tripinfo_LV.2 routing_LV.2 ssm_LV.2" vType="vehLVOS68" speedFactor="1.06" vaporized=""/>
    <tripinfo id="CAVToC.3" depart="6.00" departLane="entry_0" departPos="1.87" departSpeed="35.69" departDelay="0.30" arrival="153.00" arrivalLane="e0_0" arrivalPos="4800.00" arrivalSpeed="39.13" duration="147.00" routeLength="4998.13" waitingTime="0.00" waitingCount="0" stopTime="0.00" timeLoss="19.24" rerouteNo="0" devices="tripinfo_CAVToC.3 routing_CAVToC.3 ssm_CAVToC.3 toc_CAVToC.3 driverstateCAVToC.3" vType="vehLVOS277" speedFactor="1.08" vaporized=""/>
    <tripinfo id="CAVToC.4" depart="8.30" departLane="entry_0" departPos="3.99" departSpeed="33.55" departDelay="0.10" arrival="154.20" arrivalLane="e0_1" arrivalPos="4800.00" arrivalSpeed="35.87" duration="145.90" routeLength="4996.01" waitingTime="0.00" waitingCount="0" stopTime="0.00" timeLoss="6.68" rerouteNo="0" devices="tripinfo_CAVToC.4 routing_CAVToC.4 ssm_CAVToC.4 toc_CAVToC.4 driverstateCAVToC.4" vType="vehLVOS139" speedFactor="0.99" vaporized=""/>
    <tripinfo id="CAVToC.5" depart="9.60" departLane="entry_1" departPos="7.47" departSpeed="32.64" departDelay="1.20" arrival="164.90" arrivalLane="e0_1" arrivalPos="4800.00" arrivalSpeed="32.61" duration="155.30" routeLength="4992.53" waitingTime="0.00" waitingCount="0" stopTime="0.00" timeLoss="2.29" rerouteNo="0" devices="tripinfo_CAVToC.5 routing_CAVToC.5 ssm_CAVToC.5 toc_CAVToC.5 driverstateCAVToC.5" vType="vehLVOS491" speedFactor="0.90" vaporized=""/>
    <tripinfo id="CAVToC.6" depart="11.90" departLane="entry_1" departPos="0.50" departSpeed="33.36" departDelay="3.20" arrival="165.80" arrivalLane="e0_1" arrivalPos="4800.00" arrivalSpeed="34.19" duration="153.90" routeLength="4999.50" waitingTime="0.00" waitingCount="0" stopTime="0.00" timeLoss="25.29" rerouteNo="0" devices="tripinfo_CAVToC.6 routing_CAVToC.6 ssm_CAVToC.6 toc_CAVToC.6 driverstateCAVToC.6" vType="vehLVOS168" speedFactor="1.08" vaporized=""/>
    <tripinfo id="CVToC.4" depart="10.70" departLane="entry_0" departPos="7.57" departSpeed="33.30" departDelay="1.40" arrival="165.80" arrivalLane="e0_0" arrivalPos="4800.00" arrivalSpeed="33.71" duration="155.10" routeLength="4992.43" waitingTime="0.00" waitingCount="0" stopTime="0.00" timeLoss="12.55" rerouteNo="0" devices="tripinfo_CVToC.4 routing_CVToC.4 ssm_CVToC.4 toc_CVToC.4 driverstateCVToC.4" vType="vehLVOS20" speedFactor="0.97" vaporized=""/>
    <tripinfo id="CVToC.3" depart="13.20" departLane="entry_0" departPos="8.47" departSpeed="33.24" departDelay="4.70" arrival="167.20" arrivalLane="e0_0" arrivalPos="4800.00" arrivalSpeed="36.83" duration="154.00" routeLength="4991.53" waitingTime="0.00" waitingCount="0" stopTime="0.00" timeLoss="21.21" rerouteNo="0" devices="tripinfo_CVToC.3 routing_CVToC.3 ssm_CVToC.3 toc_CVToC.3 driverstateCVToC.3" vType="vehLVOS19" speedFactor="1.04" vaporized=""/>
    <tripinfo id="CVToC.6" depart="13.80" departLane="entry_1" departPos="3.21" departSpeed="29.80" departDelay="1.50" arrival="181.50" arrivalLane="e0_1" arrivalPos="4800.00" arrivalSpeed="29.80" duration="167.70" routeLength="4996.79" waitingTime="0.00" waitingCount="0" stopTime="0.00" timeLoss="0.04" rerouteNo="0" devices="tripinfo_CVToC.6 routing_CVToC.6 ssm_CVToC.6 toc_CVToC.6 driverstateCVToC.6" vType="vehLVOS853" speedFactor="0.83" vaporized=""/>
    <tripinfo id="CVToC.5" depart="15.50" departLane="entry_0" departPos="16.22" departSpeed="33.29" departDelay="4.80" arrival="182.70" arrivalLane="e0_0" arrivalPos="4800.00" arrivalSpeed="30.75" duration="167.20" routeLength="4983.78" waitingTime="0.00" waitingCount="0" stopTime="0.00" timeLoss="19.19" rerouteNo="0" devices="tripinfo_CVToC.5 routing_CVToC.5 ssm_CVToC.5 toc_CVToC.5 driverstateCVToC.5" vType="vehLVOS863" speedFactor="0.93" vaporized=""/>
    <tripinfo id="CVToC.7" depart="16.50" departLane="entry_1" departPos="4.28" departSpeed="30.63" departDelay="0.90" arrival="184.30" arrivalLane="e0_1" arrivalPos="4800.00" arrivalSpeed="34.42" duration="167.80" routeLength="4995.72" waitingTime="0.00" waitingCount="0" stopTime="0.00" timeLoss="32.77" rerouteNo="0" devices="tripinfo_CVToC.7 routing_CVToC.7 ssm_CVToC.7 toc_CVToC.7 driverstateCVToC.7" vType="vehLVOS138" speedFactor="1.02" vaporized=""/>
    <tripinfo id="CVToC.8" depart="19.00" departLane="entry_1" departPos="4.64" departSpeed="30.96" departDelay="2.20" arrival="187.70" arrivalLane="e0_1" arrivalPos="4800.00" arrivalSpeed="34.06" duration="168.70" routeLength="4995.36" waitingTime="0.00" waitingCount="0" stopTime="0.00" timeLoss="22.15" rerouteNo="0" devices="tripinfo_CVToC.8 routing_CVToC.8 ssm_CVToC.8 toc_CVToC.8 driverstateCVToC.8" vType="vehLVOS986" speedFactor="0.94" vaporized=""/>
    <tripinfo id="CAVToC.7" depart="17.90" departLane="entry_0" departPos="8.62" departSpeed="30.61" departDelay="2.60" arrival="188.30" arrivalLane="e0_0" arrivalPos="4800.00" arrivalSpeed="34.59" duration="170.40" routeLength="4991.38" waitingTime="0.00" waitingCount="0" stopTime="0.00" timeLoss="34.13" rerouteNo="0" devices="tripinfo_CAVToC.7 routing_CAVToC.7 ssm_CAVToC.7 toc_CAVToC.7 driverstateCAVToC.7" vType="vehLVOS224" speedFactor="1.01" vaporized=""/>
    <tripinfo id="LV.4" depart="23.50" departLane="entry_1" departPos="2.33" departSpeed="33.74" departDelay="13.40" arrival="189.90" arrivalLane="e0_1" arrivalPos="4800.00" arrivalSpeed="33.62" duration="166.40" routeLength="4997.67" waitingTime="0.00" waitingCount="0" stopTime="0.00" timeLoss="18.25" rerouteNo="0" devices="tripinfo_LV.4 routing_LV.4 ssm_LV.4" vType="vehLVOS826" speedFactor="0.93" vaporized=""/>
    <tripinfo id="CAVToC.9" depart="20.70" departLane="entry_0" departPos="7.53" departSpeed="31.49" departDelay="0.60" arrival="190.10" arrivalLane="e0_0" arrivalPos="4800.00" arrivalSpeed="35.47" duration="169.40" routeLength="4992.47" waitingTime="0.00" waitingCount="0" stopTime="0.00" timeLoss="44.03" rerouteNo="0" devices="tripinfo_CAVToC.9 routing_CAVToC.9 ssm_CAVToC.9 toc_CAVToC.9 driverstateCAVToC.9" vType="vehLVOS610" speedFactor="1.10" vaporized=""/>
    <tripinfo id="LV.5" depart="25.20" departLane="entry_0" departPos="3.14" departSpeed="40.06" departDelay="11.00" arrival="191.40" arrivalLane="e0_1" arrivalPos="4800.00" arrivalSpeed="36.66" duration="166.20" routeLength="4996.86" waitingTime="0.00" waitingCount="0" stopTime="0.00" timeLoss="41.47" rerouteNo="0" devices="tripinfo_LV.5 routing_LV.5 ssm_LV.5" vType="vehLVOS198" speedFactor="1.11" vaporized=""/>
    <tripinfo id="CAVToC.8" depart="26.20" departLane="entry_1" departPos="0.46" departSpeed="33.39" departDelay="9.30" arrival="193.00" arrivalLane="e0_1" arrivalPos="4800.00" arrivalSpeed="38.80" duration="166.80" routeLength="4999.54" waitingTime="0.00" waitingCount="0" stopTime="0.00" timeLoss="50.23" rerouteNo="0" devices="tripinfo_CAVToC.8 routing_CAVToC.8 ssm_CAVToC.8 toc_CAVToC.8 driverstateCAVToC.8" vType="vehLVOS768" speedFactor="1.19" vaporized=""/>
    <tripinfo id="LV.7" depart="28.10" departLane="entry_0" departPos="12.54" departSpeed="40.43" departDelay="1.70" arrival="193.60" arrivalLane="e0_0" arrivalPos="4800.00" arrivalSpeed="38.34" duration="165.50" routeLength="4987.46" waitingTime="0.00" waitingCount="0" stopTime="0.00" timeLoss="42.09" rerouteNo="0" devices="tripinfo_LV.7 routing_LV.7 ssm_LV.7" vType="vehLVOS383" speedFactor="1.12" vaporized=""/>
    <tripinfo id="CAVToC.10" depart="28.70" departLane="entry_1" departPos="5.77" departSpeed="33.39" departDelay="1.90" arrival="194.90" arrivalLane="e0_1" arrivalPos="4800.00" arrivalSpeed="35.20" duration="166.20" routeLength="4994.23" waitingTime="0.00" waitingCount="0" stopTime="0.00" timeLoss="24.27" rerouteNo="0" devices="tripinfo_CAVToC.10 routing_CAVToC.10 ssm_CAVToC.10 toc_CAVToC.10 driverstateCAVToC.10" vType="vehLVOS914" speedFactor="0.98" vaporized=""/>
    <tripinfo id="CVToC.9" depart="29.90" departLane="entry_0" departPos="0.44" departSpeed="35.49" departDelay="2.80" arrival="195.90" arrivalLane="e0_0" arrivalPos="4800.00" arrivalSpeed="35.96" duration="166.00" routeLength="4999.56" waitingTime="0.00" waitingCount="0" stopTime="0.00" timeLoss="27.11" rerouteNo="0" devices="tripinfo_CVToC.9 routing_CVToC.9 ssm_CVToC.9 toc_CVToC.9 driverstateCVToC.9" vType="vehLVOS477" speedFactor="1.00" vaporized=""/>
    <tripinfo id="CAVToC.11" depart="30.90" departLane="entry_1" departPos="2.88" departSpeed="33.42" departDelay="2.90" arrival="196.20" arrivalLane="e0_1" arrivalPos="4800.00" arrivalSpeed="35.08" duration="165.30" routeLength="4997.12" waitingTime="0.00" waitingCount="0" stopTime="0.00" timeLoss="23.22" rerouteNo="0" devices="tripinfo_CAVToC.11 routing_CAVToC.11 ssm_CAVToC.11 toc_CAVToC.11 driverstateCAVToC.11" vType="vehLVOS892" speedFactor="0.97" vaporized=""/>
    <tripinfo id="CAVToC.13" depart="33.50" departLane="entry_1" departPos="5.75" departSpeed="33.98" departDelay="1.90" arrival="198.10" arrivalLane="e0_1" arrivalPos="4800.00" arrivalSpeed="38.88" duration="164.60" routeLength="4994.25" waitingTime="0.00" waitingCount="0" stopTime="0.00" timeLoss="41.04" rerouteNo="0" devices="tripinfo_CAVToC.13 routing_CAVToC.13 ssm_CAVToC.13 toc_CAVToC.13 driverstateCAVToC.13" vType="vehLVOS292" speedFactor="1.12" vaporized=""/>
    <tripinfo id="CVToC.12" depart="36.00" departLane="entry_1" departPos="18.02" departSpeed="33.91" departDelay="3.50" arrival="199.90" arrivalLane="e0_1" arrivalPos="4800.00" arrivalSpeed="35.10" duration="163.90" routeLength="4981.98" waitingTime="0.00" waitingCount="0" stopTime="0.00" timeLoss="21.95" rerouteNo="0" devices="tripinfo_CVToC.12 routing_CVToC.12 ssm_CVToC.12 toc_CVToC.12 driverstateCVToC.12" vType="vehLVOS461" speedFactor="0.97" vaporized=""/>
    <tripinfo id="CAVToC.12" depart="32.10" departLane="entry_0" departPos="3.56" departSpeed="33.23" departDelay="2.50" arrival="200.70" arrivalLane="e0_0" arrivalPos="4800.00" arrivalSpeed="34.33" duration="168.60" routeLength="4996.44" waitingTime="0.00" waitingCount="0" stopTime="0.00" timeLoss="23.20" rerouteNo="0" devices="tripinfo_CAVToC.12 routing_CAVToC.12 ssm_CAVToC.12 toc_CAVToC.12 driverstateCAVToC.12" vType="vehLVOS374" speedFactor="0.95" vaporized=""/>
    <tripinfo id="CVToC.10" depart="38.40" departLane="entry_1" departPos="14.86" departSpeed="34.22" departDelay="7.60" arrival="201.20" arrivalLane="e0_1" arrivalPos="4800.00" arrivalSpeed="37.99" duration="162.80" routeLength="4985.14" waitingTime="0.00" waitingCount="0" stopTime="0.00" timeLoss="33.37" rerouteNo="0" devices="tripinfo_CVToC.10 routing_CVToC.10 ssm_CVToC.10 toc_CVToC.10 driverstateCVToC.10" vType="vehLVOS51" speedFactor="1.07" vaporized=""/>
    <tripinfo id="CAVToC.14" depart="34.80" departLane="entry_0" departPos="10.83" departSpeed="33.54" departDelay="1.70" arrival="202.10" arrivalLane="e0_0" arrivalPos="4800.00" arrivalSpeed="37.23" duration="167.30" routeLength="4989.17" waitingTime="0.00" waitingCount="0" stopTime="0.00" timeLoss="35.32" rerouteNo="0" devices="tripinfo_CAVToC.14 routing_CAVToC.14 ssm_CAVToC.14 toc_CAVToC.14 driverstateCAVToC.14" vType="vehLVOS271" speedFactor="1.05" vaporized=""/>
    <tripinfo id="LV.6" depart="40.30" departLane="entry_1" departPos="1.07" departSpeed="37.17" departDelay="24.60" arrival="203.30" arrivalLane="e0_1" arrivalPos="4800.00" arrivalSpeed="37.16" duration="163.00" routeLength="4998.93" waitingTime="0.00" waitingCount="0" stopTime="0.00" timeLoss="28.46" rerouteNo="0" devices="tripinfo_LV.6 routing_LV.6 ssm_LV.6" vType="vehLVOS298" speedFactor="1.03" vaporized=""/>
    <tripinfo id="CVToC.13" depart="38.10" departLane="entry_0" departPos="40.77" departSpeed="33.72" departDelay="4.00" arrival="203.60" arrivalLane="e0_0" arrivalPos="4800.00" arrivalSpeed="37.94" duration="165.50" routeLength="4959.23" waitingTime="0.00" waitingCount="0" stopTime="0.00" timeLoss="34.82" rerouteNo="0" devices="tripinfo_CVToC.13 routing_CVToC.13 ssm_CVToC.13 toc_CVToC.13 driverstateCVToC.13" vType="vehLVOS666" speedFactor="1.05" vaporized=""/>
    <tripinfo id="LV.9" depart="42.50" departLane="entry_1" departPos="5.02" departSpeed="37.38" departDelay="5.20" arrival="205.10" arrivalLane="e0_1" arrivalPos="4800.00" arrivalSpeed="37.37" duration="162.60" routeLength="4994.98" waitingTime="0.00" waitingCount="0" stopTime="0.00" timeLoss="28.98" rerouteNo="0" devices="tripinfo_LV.9 routing_LV.9 ssm_LV.9" vType="vehLVOS736" speedFactor="1.04" vaporized=""/>
    <tripinfo id="CAVToC.17" depart="41.40" departLane="entry_0" departPos="11.09" departSpeed="30.84" departDelay="3.20" arrival="206.20" arrivalLane="e0_0" arrivalPos="4800.00" arrivalSpeed="34.42" duration="164.80" routeLength="4988.91" waitingTime="0.00" waitingCount="0" stopTime="0.00" timeLoss="20.08" rerouteNo="0" devices="tripinfo_CAVToC.17 routing_CAVToC.17 ssm_CAVToC.17 toc_CAVToC.17 driverstateCAVToC.17" vType="vehLVOS13" speedFactor="0.96" vaporized=""/>
    <tripinfo id="CAVToC.15" depart="39.70" departLane="entry_0" departPos="31.87" departSpeed="30.33" departDelay="4.90" arrival="208.00" arrivalLane="e0_0" arrivalPos="4800.00" arrivalSpeed="30.27" duration="168.30" routeLength="4968.13" waitingTime="0.00" waitingCount="0" stopTime="0.00" timeLoss="4.43" rerouteNo="0" devices="tripinfo_CAVToC.15 routing_CAVToC.15 ssm_CAVToC.15 toc_CAVToC.15 driverstateCAVToC.15" vType="vehLVOS235" speedFactor="0.84" vaporized=""/>
    <tripinfo id="CAVToC.16" depart="44.60" departLane="entry_1" departPos="12.33" departSpeed="33.50" departDelay="6.50" arrival="208.60" arrivalLane="e0_1" arrivalPos="4800.00" arrivalSpeed="33.46" duration="164.00" routeLength="4987.67" waitingTime="0.00" waitingCount="0" stopTime="0.00" timeLoss="15.04" rerouteNo="0" devices="tripinfo_CAVToC.16 routing_CAVToC.16 ssm_CAVToC.16 toc_CAVToC.16 driverstateCAVToC.16" vType="vehLVOS961" speedFactor="0.93" vaporized=""/>
    <tripinfo id="LV.11" depart="45.90" departLane="entry_1" departPos="30.88" departSpeed="32.80" departDelay="1.30" arrival="209.80" arrivalLane="e0_1" arrivalPos="4800.00" arrivalSpeed="32.68" duration="163.90" routeLength="4969.12" waitingTime="0.00" waitingCount="0" stopTime="0.00" timeLoss="12.32" rerouteNo="0" devices="tripinfo_LV.11 routing_LV.11 ssm_LV.11" vType="vehLVOS731" speedFactor="0.91" vaporized=""/>
    <tripinfo id="CVToC.14" depart="43.70" departLane="entry_0" departPos="1.06" departSpeed="31.07" departDelay="7.80" arrival="211.00" arrivalLane="e0_0" arrivalPos="4800.00" arrivalSpeed="34.61" duration="167.30" routeLength="4998.94" waitingTime="0.00" waitingCount="0" stopTime="0.00" timeLoss="30.52" rerouteNo="0" devices="tripinfo_CVToC.14 routing_CVToC.14 ssm_CVToC.14 toc_CVToC.14 driverstateCVToC.14" vType="vehLVOS95" speedFactor="1.01" vaporized=""/>
    <tripinfo id="LV.10" depart="46.00" departLane="entry_0" departPos="4.01" departSpeed="33.70" departDelay="8.60" arrival="212.30" arrivalLane="e0_0" arrivalPos="4800.00" arrivalSpeed="33.64" duration="166.30" routeLength="4995.99" waitingTime="0.00" waitingCount="0" stopTime="0.00" timeLoss="17.96" rerouteNo="0" devices="tripinfo_LV.10 routing_LV.10 ssm_LV.10" vType="vehLVOS523" speedFactor="0.93" vaporized=""/>
    <tripinfo id="CVToC.15" depart="47.40" departLane="entry_1" departPos="6.07" departSpeed="32.70" departDelay="2.80" arrival="213.00" arrivalLane="e0_1" arrivalPos="4800.00" arrivalSpeed="33.31" duration="165.60" routeLength="4993.93" waitingTime="0.00" waitingCount="0" stopTime="0.00" timeLoss="15.60" rerouteNo="0" devices="tripinfo_CVToC.15 routing_CVToC.15 ssm_CVToC.15 toc_CVToC.15 driverstateCVToC.15" vType="vehLVOS719" speedFactor="0.92" vaporized=""/>
    <tripinfo id="CVToC.17" depart="49.80" departLane="entry_1" departPos="3.48" departSpeed="33.25" departDelay="3.90" arrival="213.90" arrivalLane="e0_1" arrivalPos="4800.00" arrivalSpeed="35.06" duration="164.10" routeLength="4996.52" waitingTime="0.00" waitingCount="0" stopTime="0.00" timeLoss="29.74" rerouteNo="0" devices="tripinfo_CVToC.17 routing_CVToC.17 ssm_CVToC.17 toc_CVToC.17 driverstateCVToC.17" vType="vehLVOS168" speedFactor="1.03" vaporized=""/>
    <tripinfo id="CVToC.11" depart="48.30" departLane="entry_0" departPos="1.89" departSpeed="32.94" departDelay="16.20" arrival="214.60" arrivalLane="e0_0" arrivalPos="4800.00" arrivalSpeed="35.45" duration="166.30" routeLength="4998.11" waitingTime="0.00" waitingCount="0" stopTime="0.00" timeLoss="32.37" rerouteNo="0" devices="tripinfo_CVToC.11 routing_CVToC.11 ssm_CVToC.11 toc_CVToC.11 driverstateCVToC.11" vType="vehLVOS842" speedFactor="1.03" vaporized=""/>
    <tripinfo id="LV.12" depart="52.50" departLane="entry_1" departPos="2.43" departSpeed="33.74" departDelay="3.10" arrival="217.50" arrivalLane="e0_1" arrivalPos="4800.00" arrivalSpeed="33.74" duration="165.00" routeLength="4997.57" waitingTime="0.00" waitingCount="0" stopTime="0.00" timeLoss="16.85" rerouteNo="0" devices="tripinfo_LV.12 routing_LV.12 ssm_LV.12" vType="vehLVOS592" speedFactor="0.93" vaporized=""/>
    <tripinfo id="CAVToC.18" depart="50.80" departLane="entry_0" departPos="3.79" departSpeed="33.08" departDelay="5.60" arrival="218.60" arrivalLane="e0_0" arrivalPos="4800.00" arrivalSpeed="35.72" duration="167.80" routeLength="4996.21" waitingTime="0.00" waitingCount="0" stopTime="0.00" timeLoss="31.63" rerouteNo="0" devices="tripinfo_CAVToC.18 routing_CAVToC.18 ssm_CAVToC.18 toc_CAVToC.18 driverstateCAVToC.18" vType="vehLVOS793" speedFactor="1.02" vaporized=""/>
    <tripinfo id="CVToC.16" depart="55.00" departLane="entry_1" departPos="0.88" departSpeed="34.26" departDelay="9.40" arrival="219.00" arrivalLane="e0_1" arrivalPos="4800.00" arrivalSpeed="35.85" duration="164.00" routeLength="4999.12" waitingTime="0.00" waitingCount="0" stopTime="0.00" timeLoss="38.61" rerouteNo="0" devices="tripinfo_CVToC.16 routing_CVToC.16 ssm_CVToC.16 toc_CVToC.16 driverstateCVToC.16" vType="vehLVOS240" speedFactor="1.10" vaporized=""/>
    <tripinfo id="CVToC.18" depart="53.20" departLane="entry_0" departPos="2.92" departSpeed="33.42" departDelay="0.00" arrival="220.20" arrivalLane="e0_0" arrivalPos="4800.00" arrivalSpeed="37.34" duration="167.00" routeLength="4997.08" waitingTime="0.00" waitingCount="0" stopTime="0.00" timeLoss="37.21" rerouteNo="0" devices="tripinfo_CVToC.18 routing_CVToC.18 ssm_CVToC.18 toc_CVToC.18 driverstateCVToC.18" vType="vehLVOS102" speedFactor="1.07" vaporized=""/>
    <tripinfo id="LV.13" depart="56.20" departLane="entry_1" departPos="14.66" departSpeed="32.36" departDelay="1.40" arrival="220.60" arrivalLane="e0_1" arrivalPos="4800.00" arrivalSpeed="32.34" duration="164.40" routeLength="4985.34" waitingTime="0.00" waitingCount="0" stopTime="0.00" timeLoss="10.30" rerouteNo="0" devices="tripinfo_LV.13 routing_LV.13 ssm_LV.13" vType="vehLVOS73" speedFactor="0.90" vaporized=""/>
    <tripinfo id="CVToC.20" depart="58.40" departLane="entry_1" departPos="6.13" departSpeed="32.76" departDelay="1.60" arrival="222.70" arrivalLane="e0_1" arrivalPos="4800.00" arrivalSpeed="35.34" duration="164.30" routeLength="4993.87" waitingTime="0.00" waitingCount="0" stopTime="0.00" timeLoss="27.23" rerouteNo="0" devices="tripinfo_CVToC.20 routing_CVToC.20 ssm_CVToC.20 toc_CVToC.20 driverstateCVToC.20" vType="vehLVOS975" speedFactor="1.01" vaporized=""/>
    <tripinfo id="CAVToC.19" depart="61.00" departLane="entry_1" departPos="5.28" departSpeed="33.40" departDelay="3.90" arrival="223.60" arrivalLane="e0_0" arrivalPos="4800.00" arrivalSpeed="35.31" duration="162.60" routeLength="4994.72" waitingTime="0.00" waitingCount="0" stopTime="0.00" timeLoss="33.41" rerouteNo="0" devices="tripinfo_CAVToC.19 routing_CAVToC.19 ssm_CAVToC.19 toc_CAVToC.19 driverstateCAVToC.19" vType="vehLVOS999" speedFactor="1.07" vaporized=""/>
    <tripinfo id="CVToC.21" depart="59.90" departLane="entry_0" departPos="13.22" departSpeed="30.46" departDelay="3.00" arrival="224.40" arrivalLane="e0_1" arrivalPos="4800.00" arrivalSpeed="35.75" duration="164.50" routeLength="4986.78" waitingTime="0.00" waitingCount="0" stopTime="0.00" timeLoss="32.56" rerouteNo="0" devices="tripinfo_CVToC.21 routing_CVToC.21 ssm_CVToC.21 toc_CVToC.21 driverstateCVToC.21" vType="vehLVOS510" speedFactor="1.05" vaporized=""/>
    <tripinfo id="LV.14" depart="56.30" departLane="entry_0" departPos="75.93" departSpeed="30.21" departDelay="1.10" arrival="225.30" arrivalLane="e0_0" arrivalPos="4800.00" arrivalSpeed="30.17" duration="169.00" routeLength="4924.07" waitingTime="0.00" waitingCount="0" stopTime="0.00" timeLoss="5.96" rerouteNo="0" devices="tripinfo_LV.14 routing_LV.14 ssm_LV.14" vType="vehLVOS392" speedFactor="0.84" vaporized=""/>
    <tripinfo id="CAVToC.21" depart="63.60" departLane="entry_1" departPos="15.30" departSpeed="33.77" departDelay="2.30" arrival="227.50" arrivalLane="e0_1" arrivalPos="4800.00" arrivalSpeed="36.50" duration="163.90" routeLength="4984.70" waitingTime="0.00" waitingCount="0" stopTime="0.00" timeLoss="30.84" rerouteNo="0" devices="tripinfo_CAVToC.21 routing_CAVToC.21 ssm_CAVToC.21 toc_CAVToC.21 driverstateCAVToC.21" vType="vehLVOS288" speedFactor="1.04" vaporized=""/>
    <tripinfo id="CVToC.19" depart="57.30" departLane="entry_0" departPos="14.33" departSpeed="31.53" departDelay="3.10" arrival="228.10" arrivalLane="e0_0" arrivalPos="4800.00" arrivalSpeed="34.78" duration="170.80" routeLength="4985.67" waitingTime="0.00" waitingCount="0" stopTime="0.00" timeLoss="56.10" rerouteNo="0" devices="tripinfo_CVToC.19 routing_CVToC.19 ssm_CVToC.19 toc_CVToC.19 driverstateCVToC.19" vType="vehLVOS226" speedFactor="1.20" vaporized=""/>
    <tripinfo id="CVToC.23" depart="65.70" departLane="entry_1" departPos="0.28" departSpeed="34.40" departDelay="4.50" arrival="229.00" arrivalLane="e0_1" arrivalPos="4800.00" arrivalSpeed="37.46" duration="163.30" routeLength="4999.72" waitingTime="0.00" waitingCount="0" stopTime="0.00" timeLoss="39.18" rerouteNo="0" devices="tripinfo_CVToC.23 routing_CVToC.23 ssm_CVToC.23 toc_CVToC.23 driverstateCVToC.23" vType="vehLVOS789" speedFactor="1.12" vaporized=""/>
    <tripinfo id="CVToC.22" depart="62.80" departLane="entry_0" departPos="6.50" departSpeed="31.71" departDelay="5.00" arrival="229.40" arrivalLane="e0_0" arrivalPos="4800.00" arrivalSpeed="34.72" duration="166.60" routeLength="4993.50" waitingTime="0.00" waitingCount="0" stopTime="0.00" timeLoss="51.35" rerouteNo="0" devices="tripinfo_CVToC.22 routing_CVToC.22 ssm_CVToC.22 toc_CVToC.22 driverstateCVToC.22" vType="vehLVOS359" speedFactor="1.20" vaporized=""/>
    <tripinfo id="CAVToC.20" depart="67.70" departLane="entry_0" departPos="91.84" departSpeed="30.82" departDelay="6.90" arrival="231.40" arrivalLane="e0_0" arrivalPos="4800.00" arrivalSpeed="32.16" duration="163.70" routeLength="4908.16" waitingTime="0.00" waitingCount="0" stopTime="0.00" timeLoss="11.44" rerouteNo="0" devices="tripinfo_CAVToC.20 routing_CAVToC.20 ssm_CAVToC.20 toc_CAVToC.20 driverstateCAVToC.20" vType="vehLVOS477" speedFactor="0.89" vaporized=""/>
    <tripinfo id="CAVToC.22" depart="67.70" departLane="entry_0" departPos="12.61" departSpeed="31.61" departDelay="5.80" arrival="234.30" arrivalLane="e0_1" arrivalPos="4800.00" arrivalSpeed="37.66" duration="166.60" routeLength="4987.39" waitingTime="0.00" waitingCount="0" stopTime="0.00" timeLoss="34.29" rerouteNo="0" devices="tripinfo_CAVToC.22 routing_CAVToC.22 ssm_CAVToC.22 toc_CAVToC.22 driverstateCAVToC.22" vType="vehLVOS208" speedFactor="1.04" vaporized=""/>