<?xml version="1.0" encoding="UTF-8"?>

<!-- generated on 09/23/20 15:53:29 by Eclipse SUMO Version 1.6.0
<configuration xmlns:xsi="http://www.w3.org/2001/XMLSchema-instance" xsi:noNamespaceSchemaLocation="http://sumo.dlr.de/xsd/sumoConfiguration.xsd">

    <input>
        <net-file value="scenario/UC5_1.net.xml"/>
        <route-files value="scenario/routes_trafficMix_0_trafficDemand_1_driverBehaviour_OS_seed_0.xml"/>
        <additional-files value="scenario/additionalsOutput_trafficMix_0_trafficDemand_1_driverBehaviour_OS_seed_0.xml,scenario/vTypesCAVToC_OS.add.xml,scenario/vTypesCVToC_OS.add.xml,scenario/vTypesLV_OS.add.xml,scenario/shapes.add.xml,scenario/view.add.xml"/>
    </input>

    <output>
        <tripinfo-output value="C:\Users\laborknecht\Aris\workspace\ma-branch\tor-distribution/outputs/simulations/DQN__2020-09-23_11-07-42__20200923-155324/tripinfo_1.xml"/>
    </output>

    <time>
        <step-length value="0.1"/>
    </time>

    <processing>
        <step-method.ballistic value="true"/>
        <ignore-route-errors value="true"/>
        <lanechange.duration value="2.5"/>
    </processing>

    <report>
        <no-step-log value="true"/>
    </report>

    <toc_device>
        <device.toc.ogNewTimeHeadway value="100"/>
        <device.toc.ogNewSpaceHeadway value="5"/>
        <device.toc.ogMaxDecel value="1"/>
        <device.toc.ogChangeRate value="1"/>
    </toc_device>

    <traci_server>
        <remote-port value="52336"/>
    </traci_server>

    <random_number>
        <seed value="1025"/>
    </random_number>

    <gui_only>
        <tracker-interval value="0.1"/>
    </gui_only>

</configuration>
-->

<tripinfos xmlns:xsi="http://www.w3.org/2001/XMLSchema-instance" xsi:noNamespaceSchemaLocation="http://sumo.dlr.de/xsd/tripinfo_file.xsd">
    <tripinfo id="CVToC.2" depart="7.10" departLane="entry_1" departPos="199.90" departSpeed="37.77" departDelay="0.00" arrival="133.10" arrivalLane="e0_1" arrivalPos="4800.00" arrivalSpeed="40.54" duration="126.00" routeLength="4800.10" waitingTime="0.00" waitingCount="0" stopTime="0.00" timeLoss="7.68" rerouteNo="0" devices="tripinfo_CVToC.2 routing_CVToC.2 ssm_CVToC.2 toc_CVToC.2 driverstateCVToC.2" vType="vehLVOS696" speedFactor="1.12" vaporized=""/>
    <tripinfo id="LV.0" depart="4.60" departLane="entry_1" departPos="199.90" departSpeed="37.23" departDelay="0.00" arrival="133.80" arrivalLane="e0_0" arrivalPos="4800.00" arrivalSpeed="37.20" duration="129.20" routeLength="4800.10" waitingTime="0.00" waitingCount="0" stopTime="0.00" timeLoss="0.25" rerouteNo="0" devices="tripinfo_LV.0 routing_LV.0 ssm_LV.0" vType="vehLVOS656" speedFactor="1.03" vaporized=""/>
    <tripinfo id="LV.1" depart="8.00" departLane="entry_1" departPos="35.27" departSpeed="39.19" departDelay="0.00" arrival="138.60" arrivalLane="e0_1" arrivalPos="4800.00" arrivalSpeed="39.16" duration="130.60" routeLength="4964.73" waitingTime="0.00" waitingCount="0" stopTime="0.00" timeLoss="3.84" rerouteNo="0" devices="tripinfo_LV.1 routing_LV.1 ssm_LV.1" vType="vehLVOS687" speedFactor="1.09" vaporized=""/>
    <tripinfo id="CVToC.0" depart="2.30" departLane="entry_0" departPos="199.90" departSpeed="35.42" departDelay="0.00" arrival="139.20" arrivalLane="e0_0" arrivalPos="4800.00" arrivalSpeed="35.25" duration="136.90" routeLength="4800.10" waitingTime="0.00" waitingCount="0" stopTime="0.00" timeLoss="1.30" rerouteNo="0" devices="tripinfo_CVToC.0 routing_CVToC.0 ssm_CVToC.0 toc_CVToC.0 driverstateCVToC.0" vType="vehLVOS473" speedFactor="0.98" vaporized=""/>
    <tripinfo id="CVToC.3" depart="9.30" departLane="entry_0" departPos="199.90" departSpeed="36.84" departDelay="0.30" arrival="139.80" arrivalLane="e0_1" arrivalPos="4800.00" arrivalSpeed="40.97" duration="130.50" routeLength="4800.10" waitingTime="0.00" waitingCount="0" stopTime="0.00" timeLoss="15.42" rerouteNo="0" devices="tripinfo_CVToC.3 routing_CVToC.3 ssm_CVToC.3 toc_CVToC.3 driverstateCVToC.3" vType="vehLVOS944" speedFactor="1.16" vaporized=""/>
    <tripinfo id="CVToC.1" depart="3.50" departLane="entry_0" departPos="173.54" departSpeed="32.53" departDelay="0.00" arrival="152.20" arrivalLane="e0_0" arrivalPos="4800.00" arrivalSpeed="32.40" duration="148.70" routeLength="4826.46" waitingTime="0.00" waitingCount="0" stopTime="0.00" timeLoss="0.31" rerouteNo="0" devices="tripinfo_CVToC.1 routing_CVToC.1 ssm_CVToC.1 toc_CVToC.1 driverstateCVToC.1" vType="vehLVOS645" speedFactor="0.90" vaporized=""/>
    <tripinfo id="CAVToC.2" depart="11.30" departLane="entry_0" departPos="199.90" departSpeed="34.02" departDelay="0.00" arrival="153.90" arrivalLane="e0_1" arrivalPos="4800.00" arrivalSpeed="34.00" duration="142.60" routeLength="4800.10" waitingTime="0.00" waitingCount="0" stopTime="0.00" timeLoss="1.45" rerouteNo="0" devices="tripinfo_CAVToC.2 routing_CAVToC.2 ssm_CAVToC.2 toc_CAVToC.2 driverstateCAVToC.2" vType="vehLVOS876" speedFactor="0.94" vaporized=""/>
    <tripinfo id="LV.3" depart="13.20" departLane="entry_0" departPos="199.90" departSpeed="33.19" departDelay="0.10" arrival="158.60" arrivalLane="e0_0" arrivalPos="4800.00" arrivalSpeed="33.13" duration="145.40" routeLength="4800.10" waitingTime="0.00" waitingCount="0" stopTime="0.00" timeLoss="0.67" rerouteNo="0" devices="tripinfo_LV.3 routing_LV.3 ssm_LV.3" vType="vehLVOS630" speedFactor="0.92" vaporized=""/>
    <tripinfo id="CAVToC.0" depart="10.00" departLane="entry_1" departPos="48.21" departSpeed="32.14" departDelay="0.00" arrival="164.80" arrivalLane="e0_1" arrivalPos="4800.00" arrivalSpeed="32.11" duration="154.80" routeLength="4951.79" waitingTime="0.00" waitingCount="0" stopTime="0.00" timeLoss="0.71" rerouteNo="0" devices="tripinfo_CAVToC.0 routing_CAVToC.0 ssm_CAVToC.0 toc_CAVToC.0 driverstateCAVToC.0" vType="vehLVOS228" speedFactor="0.89" vaporized=""/>
    <tripinfo id="CVToC.4" depart="13.40" departLane="entry_0" departPos="125.53" departSpeed="33.53" departDelay="0.20" arrival="165.80" arrivalLane="e0_0" arrivalPos="4800.00" arrivalSpeed="33.82" duration="152.40" routeLength="4874.47" waitingTime="0.00" waitingCount="0" stopTime="0.00" timeLoss="17.92" rerouteNo="0" devices="tripinfo_CVToC.4 routing_CVToC.4 ssm_CVToC.4 toc_CVToC.4 driverstateCVToC.4" vType="vehLVOS911" speedFactor="1.00" vaporized=""/>
    <tripinfo id="CAVToC.3" depart="19.70" departLane="entry_1" departPos="19.40" departSpeed="33.93" departDelay="0.00" arrival="165.80" arrivalLane="e0_1" arrivalPos="4800.00" arrivalSpeed="33.70" duration="146.10" routeLength="4980.60" waitingTime="0.00" waitingCount="0" stopTime="0.00" timeLoss="11.98" rerouteNo="0" devices="tripinfo_CAVToC.3 routing_CAVToC.3 ssm_CAVToC.3 toc_CAVToC.3 driverstateCAVToC.3" vType="vehLVOS517" speedFactor="1.03" vaporized=""/>
    <tripinfo id="LV.5" depart="18.00" departLane="entry_1" departPos="40.44" departSpeed="35.33" departDelay="0.00" arrival="166.60" arrivalLane="e0_1" arrivalPos="4800.00" arrivalSpeed="34.79" duration="148.60" routeLength="4959.56" waitingTime="0.00" waitingCount="0" stopTime="0.00" timeLoss="8.22" rerouteNo="0" devices="tripinfo_LV.5 routing_LV.5 ssm_LV.5" vType="vehLVOS488" speedFactor="0.98" vaporized=""/>
    <tripinfo id="CVToC.8" depart="25.00" departLane="entry_1" departPos="9.33" departSpeed="30.71" departDelay="1.70" arrival="170.80" arrivalLane="e0_1" arrivalPos="4800.00" arrivalSpeed="38.67" duration="145.80" routeLength="4990.67" waitingTime="0.00" waitingCount="0" stopTime="0.00" timeLoss="18.08" rerouteNo="0" devices="tripinfo_CVToC.8 routing_CVToC.8 ssm_CVToC.8 toc_CVToC.8 driverstateCVToC.8" vType="vehLVOS508" speedFactor="1.08" vaporized=""/>
    <tripinfo id="CAVToC.5" depart="22.00" departLane="entry_1" departPos="2.28" departSpeed="30.35" departDelay="0.10" arrival="174.20" arrivalLane="e0_0" arrivalPos="4800.00" arrivalSpeed="34.85" duration="152.20" routeLength="4997.72" waitingTime="0.00" waitingCount="0" stopTime="0.00" timeLoss="8.82" rerouteNo="0" devices="tripinfo_CAVToC.5 routing_CAVToC.5 ssm_CAVToC.5 toc_CAVToC.5 driverstateCAVToC.5" vType="vehLVOS194" speedFactor="0.97" vaporized=""/>
    <tripinfo id="LV.8" depart="28.50" departLane="entry_1" departPos="2.15" departSpeed="35.64" departDelay="8.40" arrival="177.70" arrivalLane="e0_0" arrivalPos="4800.00" arrivalSpeed="35.60" duration="149.20" routeLength="4997.85" waitingTime="0.00" waitingCount="0" stopTime="0.00" timeLoss="8.90" rerouteNo="0" devices="tripinfo_LV.8 routing_LV.8 ssm_LV.8" vType="vehLVOS557" speedFactor="0.99" vaporized=""/>
    <tripinfo id="LV.9" depart="30.70" departLane="entry_1" departPos="14.20" departSpeed="34.03" departDelay="8.90" arrival="183.50" arrivalLane="e0_0" arrivalPos="4800.00" arrivalSpeed="33.94" duration="152.80" routeLength="4985.80" waitingTime="0.00" waitingCount="0" stopTime="0.00" timeLoss="6.25" rerouteNo="0" devices="tripinfo_LV.9 routing_LV.9 ssm_LV.9" vType="vehLVOS437" speedFactor="0.94" vaporized=""/>
    <tripinfo id="CAVToC.1" depart="11.00" departLane="entry_1" departPos="1.04" departSpeed="22.56" departDelay="0.40" arrival="192.20" arrivalLane="e0_0" arrivalPos="4800.00" arrivalSpeed="28.27" duration="181.20" routeLength="4998.96" waitingTime="0.00" waitingCount="0" stopTime="0.00" timeLoss="4.32" rerouteNo="0" devices="tripinfo_CAVToC.1 routing_CAVToC.1 ssm_CAVToC.1 toc_CAVToC.1 driverstateCAVToC.1" vType="vehLVOS103" speedFactor="0.78" vaporized=""/>
    <tripinfo id="LV.7" depart="19.90" departLane="entry_1" departPos="18.59" departSpeed="29.79" departDelay="0.10" arrival="193.10" arrivalLane="e0_0" arrivalPos="4800.00" arrivalSpeed="29.68" duration="173.20" routeLength="4981.41" waitingTime="0.00" waitingCount="0" stopTime="0.00" timeLoss="5.95" rerouteNo="0" devices="tripinfo_LV.7 routing_LV.7 ssm_LV.7" vType="vehLVOS513" speedFactor="0.82" vaporized=""/>
    <tripinfo id="LV.12" depart="34.90" departLane="entry_1" departPos="41.81" departSpeed="30.97" departDelay="0.40" arrival="196.40" arrivalLane="e0_1" arrivalPos="4800.00" arrivalSpeed="30.92" duration="161.50" routeLength="4958.19" waitingTime="0.00" waitingCount="0" stopTime="0.00" timeLoss="1.35" rerouteNo="0" devices="tripinfo_LV.12 routing_LV.12 ssm_LV.12" vType="vehLVOS625" speedFactor="0.86" vaporized=""/>
    <tripinfo id="CVToC.13" depart="32.80" departLane="entry_1" departPos="17.51" departSpeed="30.58" departDelay="0.80" arrival="196.50" arrivalLane="e0_0" arrivalPos="4800.00" arrivalSpeed="30.53" duration="163.70" routeLength="4982.49" waitingTime="0.00" waitingCount="0" stopTime="0.00" timeLoss="0.71" rerouteNo="0" devices="tripinfo_CVToC.13 routing_CVToC.13 ssm_CVToC.13 toc_CVToC.13 driverstateCVToC.13" vType="vehLVOS496" speedFactor="0.85" vaporized=""/>
    <tripinfo id="CAVToC.7" depart="36.40" departLane="entry_1" departPos="6.66" departSpeed="31.29" departDelay="1.60" arrival="199.00" arrivalLane="e0_1" arrivalPos="4800.00" arrivalSpeed="33.87" duration="162.60" routeLength="4993.34" waitingTime="0.00" waitingCount="0" stopTime="0.00" timeLoss="31.57" rerouteNo="0" devices="tripinfo_CAVToC.7 routing_CAVToC.7 ssm_CAVToC.7 toc_CAVToC.7 driverstateCAVToC.7" vType="vehLVOS660" speedFactor="1.06" vaporized=""/>
    <tripinfo id="LV.13" depart="39.60" departLane="entry_1" departPos="14.70" departSpeed="36.93" departDelay="1.80" arrival="199.80" arrivalLane="e0_0" arrivalPos="4800.00" arrivalSpeed="36.13" duration="160.20" routeLength="4985.30" waitingTime="0.00" waitingCount="0" stopTime="0.00" timeLoss="25.16" rerouteNo="0" devices="tripinfo_LV.13 routing_LV.13 ssm_LV.13" vType="vehLVOS81" speedFactor="1.02" vaporized=""/>
    <tripinfo id="CVToC.14" depart="41.50" departLane="entry_1" departPos="5.01" departSpeed="36.05" departDelay="3.40" arrival="200.50" arrivalLane="e0_1" arrivalPos="4800.00" arrivalSpeed="34.02" duration="159.00" routeLength="4994.99" waitingTime="0.00" waitingCount="0" stopTime="0.00" timeLoss="24.53" rerouteNo="0" devices="tripinfo_CVToC.14 routing_CVToC.14 ssm_CVToC.14 toc_CVToC.14 driverstateCVToC.14" vType="vehLVOS479" speedFactor="1.03" vaporized=""/>
    <tripinfo id="LV.15" depart="45.60" departLane="entry_1" departPos="29.38" departSpeed="34.75" departDelay="3.30" arrival="201.60" arrivalLane="e0_1" arrivalPos="4800.00" arrivalSpeed="34.75" duration="156.00" routeLength="4970.62" waitingTime="0.00" waitingCount="0" stopTime="0.00" timeLoss="12.90" rerouteNo="0" devices="tripinfo_LV.15 routing_LV.15 ssm_LV.15" vType="vehLVOS180" speedFactor="0.96" vaporized=""/>
    <tripinfo id="CAVToC.10" depart="45.40" departLane="entry_1" departPos="68.98" departSpeed="33.65" departDelay="2.60" arrival="203.40" arrivalLane="e0_0" arrivalPos="4800.00" arrivalSpeed="33.60" duration="158.00" routeLength="4931.02" waitingTime="0.00" waitingCount="0" stopTime="0.00" timeLoss="11.41" rerouteNo="0" devices="tripinfo_CAVToC.10 routing_CAVToC.10 ssm_CAVToC.10 toc_CAVToC.10 driverstateCAVToC.10" vType="vehLVOS545" speedFactor="0.93" vaporized=""/>
    <tripinfo id="CAVToC.13" depart="46.40" departLane="entry_0" departPos="30.08" departSpeed="29.28" departDelay="2.40" arrival="203.80" arrivalLane="e0_1" arrivalPos="4800.00" arrivalSpeed="34.50" duration="157.40" routeLength="4969.92" waitingTime="0.00" waitingCount="0" stopTime="0.00" timeLoss="13.48" rerouteNo="0" devices="tripinfo_CAVToC.13 routing_CAVToC.13 ssm_CAVToC.13 toc_CAVToC.13 driverstateCAVToC.13" vType="vehLVOS706" speedFactor="0.96" vaporized=""/>
    <tripinfo id="CAVToC.14" depart="51.70" departLane="entry_1" departPos="81.22" departSpeed="31.63" departDelay="6.80" arrival="205.00" arrivalLane="e0_1" arrivalPos="4800.00" arrivalSpeed="35.83" duration="153.30" routeLength="4918.78" waitingTime="0.00" waitingCount="0" stopTime="0.00" timeLoss="25.62" rerouteNo="0" devices="tripinfo_CAVToC.14 routing_CAVToC.14 ssm_CAVToC.14 toc_CAVToC.14 driverstateCAVToC.14" vType="vehLVOS922" speedFactor="1.07" vaporized=""/>
    <tripinfo id="CVToC.17" depart="57.10" departLane="entry_1" departPos="91.90" departSpeed="29.68" departDelay="10.10" arrival="207.40" arrivalLane="e0_1" arrivalPos="4800.00" arrivalSpeed="38.75" duration="150.30" routeLength="4908.10" waitingTime="0.00" waitingCount="0" stopTime="0.00" timeLoss="25.10" rerouteNo="0" devices="tripinfo_CVToC.17 routing_CVToC.17 ssm_CVToC.17 toc_CVToC.17 driverstateCVToC.17" vType="vehLVOS223" speedFactor="1.09" vaporized=""/>
    <tripinfo id="CAVToC.12" depart="51.60" departLane="entry_0" departPos="7.82" departSpeed="31.28" departDelay="8.40" arrival="208.40" arrivalLane="e0_1" arrivalPos="4800.00" arrivalSpeed="38.06" duration="156.80" routeLength="4992.18" waitingTime="0.00" waitingCount="0" stopTime="0.00" timeLoss="31.79" rerouteNo="0" devices="tripinfo_CAVToC.12 routing_CAVToC.12 ssm_CAVToC.12 toc_CAVToC.12 driverstateCAVToC.12" vType="vehLVOS435" speedFactor="1.11" vaporized=""/>
    <tripinfo id="CAVToC.15" depart="57.10" departLane="entry_1" departPos="10.91" departSpeed="30.43" departDelay="9.70" arrival="209.40" arrivalLane="e0_0" arrivalPos="4800.00" arrivalSpeed="35.88" duration="152.30" routeLength="4989.09" waitingTime="0.00" waitingCount="0" stopTime="0.00" timeLoss="13.39" rerouteNo="0" devices="tripinfo_CAVToC.15 routing_CAVToC.15 ssm_CAVToC.15 toc_CAVToC.15 driverstateCAVToC.15" vType="vehLVOS583" speedFactor="1.00" vaporized=""/>
    <tripinfo id="LV.6" depart="18.90" departLane="entry_0" departPos="105.11" departSpeed="31.11" departDelay="0.00" arrival="216.30" arrivalLane="e0_0" arrivalPos="4800.00" arrivalSpeed="31.09" duration="197.40" routeLength="4894.89" waitingTime="0.00" waitingCount="0" stopTime="0.00" timeLoss="40.03" rerouteNo="0" devices="tripinfo_LV.6 routing_LV.6 ssm_LV.6" vType="vehLVOS774" speedFactor="0.86" vaporized=""/>
    <tripinfo id="CVToC.20" depart="62.20" departLane="entry_1" departPos="93.20" departSpeed="29.88" departDelay="10.40" arrival="220.00" arrivalLane="e0_0" arrivalPos="4800.00" arrivalSpeed="31.84" duration="157.80" routeLength="4906.80" waitingTime="0.00" waitingCount="0" stopTime="0.00" timeLoss="3.70" rerouteNo="0" devices="tripinfo_CVToC.20 routing_CVToC.20 ssm_CVToC.20 toc_CVToC.20 driverstateCVToC.20" vType="vehLVOS799" speedFactor="0.88" vaporized=""/>
    <tripinfo id="LV.16" depart="64.20" departLane="entry_1" departPos="7.51" departSpeed="37.44" departDelay="14.40" arrival="221.80" arrivalLane="e0_1" arrivalPos="4800.00" arrivalSpeed="36.42" duration="157.60" routeLength="4992.49" waitingTime="0.00" waitingCount="0" stopTime="0.00" timeLoss="24.21" rerouteNo="0" devices="tripinfo_LV.16 routing_LV.16 ssm_LV.16" vType="vehLVOS918" speedFactor="1.04" vaporized=""/>
    <tripinfo id="LV.17" depart="64.30" departLane="entry_1" departPos="3.65" departSpeed="33.20" departDelay="13.80" arrival="223.40" arrivalLane="e0_0" arrivalPos="4800.00" arrivalSpeed="33.14" duration="159.10" routeLength="4996.35" waitingTime="0.00" waitingCount="0" stopTime="0.00" timeLoss="8.53" rerouteNo="0" devices="tripinfo_LV.17 routing_LV.17 ssm_LV.17" vType="vehLVOS397" speedFactor="0.92" vaporized=""/>
    <tripinfo id="CVToC.21" depart="64.80" departLane="entry_0" departPos="8.95" departSpeed="33.08" departDelay="10.80" arrival="223.90" arrivalLane="e0_1" arrivalPos="4800.00" arrivalSpeed="37.57" duration="159.10" routeLength="4991.05" waitingTime="0.00" waitingCount="0" stopTime="0.00" timeLoss="26.40" rerouteNo="0" devices="tripinfo_CVToC.21 routing_CVToC.21 ssm_CVToC.21 toc_CVToC.21 driverstateCVToC.21" vType="vehLVOS167" speedFactor="1.04" vaporized=""/>
    <tripinfo id="CAVToC.17" depart="66.70" departLane="entry_1" departPos="3.39" departSpeed="32.92" departDelay="10.00" arrival="226.00" arrivalLane="e0_1" arrivalPos="4800.00" arrivalSpeed="37.99" duration="159.30" routeLength="4996.61" waitingTime="0.00" waitingCount="0" stopTime="0.00" timeLoss="27.82" rerouteNo="0" devices="tripinfo_CAVToC.17 routing_CAVToC.17 ssm_CAVToC.17 toc_CAVToC.17 driverstateCAVToC.17" vType="vehLVOS456" speedFactor="1.05" vaporized=""/>
    <tripinfo id="CVToC.22" depart="72.10" departLane="entry_1" departPos="95.62" departSpeed="31.20" departDelay="14.50" arrival="226.90" arrivalLane="e0_1" arrivalPos="4800.00" arrivalSpeed="38.47" duration="154.80" routeLength="4904.38" waitingTime="0.00" waitingCount="0" stopTime="0.00" timeLoss="27.42" rerouteNo="0" devices="tripinfo_CVToC.22 routing_CVToC.22 ssm_CVToC.22 toc_CVToC.22 driverstateCVToC.22" vType="vehLVOS989" speedFactor="1.07" vaporized=""/>
    <tripinfo id="CAVToC.19" depart="72.10" departLane="entry_1" departPos="11.64" departSpeed="31.98" departDelay="12.00" arrival="229.00" arrivalLane="e0_1" arrivalPos="4800.00" arrivalSpeed="37.53" duration="156.90" routeLength="4988.36" waitingTime="0.00" waitingCount="0" stopTime="0.00" timeLoss="24.15" rerouteNo="0" devices="tripinfo_CAVToC.19 routing_CAVToC.19 ssm_CAVToC.19 toc_CAVToC.19 driverstateCAVToC.19" vType="vehLVOS583" speedFactor="1.04" vaporized=""/>
    <tripinfo id="LV.11" depart="79.30" departLane="entry_1" departPos="25.79" departSpeed="47.54" departDelay="48.50" arrival="230.00" arrivalLane="e0_1" arrivalPos="4800.00" arrivalSpeed="39.00" duration="150.70" routeLength="4974.21" waitingTime="0.00" waitingCount="0" stopTime="0.00" timeLoss="46.02" rerouteNo="0" devices="tripinfo_LV.11 routing_LV.11 ssm_LV.11" vType="vehLVOS233" speedFactor="1.32" vaporized=""/>
    <tripinfo id="LV.14" depart="81.90" departLane="entry_1" departPos="17.26" departSpeed="43.01" departDelay="40.70" arrival="232.30" arrivalLane="e0_1" arrivalPos="4800.00" arrivalSpeed="41.05" duration="150.40" routeLength="4982.74" waitingTime="0.00" waitingCount="0" stopTime="0.00" timeLoss="34.55" rerouteNo="0" devices="tripinfo_LV.14 routing_LV.14 ssm_LV.14" vType="vehLVOS310" speedFactor="1.19" vaporized=""/>
    <tripinfo id="LV.10" depart="84.00" departLane="entry_1" departPos="0.58" departSpeed="45.10" departDelay="57.60" arrival="233.40" arrivalLane="e0_1" arrivalPos="4800.00" arrivalSpeed="41.98" duration="149.40" routeLength="4999.42" waitingTime="0.00" waitingCount="0" stopTime="0.00" timeLoss="38.46" rerouteNo="0" devices="tripinfo_LV.10 routing_LV.10 ssm_LV.10" vType="vehLVOS463" speedFactor="1.25" vaporized=""/>
    <tripinfo id="CAVToC.21" depart="80.10" departLane="entry_0" departPos="47.01" departSpeed="26.32" departDelay="18.40" arrival="234.90" arrivalLane="e0_1" arrivalPos="4800.00" arrivalSpeed="34.52" duration="154.80" routeLength="4952.99" waitingTime="0.00" waitingCount="0" stopTime="0.00" timeLoss="11.26" rerouteNo="0" devices="tripinfo_CAVToC.21 routing_CAVToC.21 ssm_CAVToC.21 toc_CAVToC.21 driverstateCAVToC.21" vType="vehLVOS448" speedFactor="0.96" vaporized=""/>
    <tripinfo id="CAVToC.20" depart="86.40" departLane="entry_1" departPos="3.91" departSpeed="32.69" departDelay="25.30" arrival="237.00" arrivalLane="e0_1" arrivalPos="4800.00" arrivalSpeed="33.64" duration="150.60" routeLength="4996.09" waitingTime="0.00" waitingCount="0" stopTime="0.00" timeLoss="2.52" rerouteNo="0" devices="tripinfo_CAVToC.20 routing_CAVToC.20 ssm_CAVToC.20 toc_CAVToC.20 driverstateCAVToC.20" vType="vehLVOS621" speedFactor="0.93" vaporized=""/>
    <tripinfo id="LV.2" depart="10.20" departLane="entry_1" departPos="47.03" departSpeed="21.84" departDelay="0.00" arrival="237.20" arrivalLane="e0_0" arrivalPos="4800.00" arrivalSpeed="21.84" duration="227.00" routeLength="4952.97" waitingTime="0.00" waitingCount="0" stopTime="0.00" timeLoss="0.22" rerouteNo="0" devices="tripinfo_LV.2 routing_LV.2 ssm_LV.2" vType="vehLVOS719" speedFactor="0.60" vaporized=""/>
    <tripinfo id="CAVToC.22" depart="87.00" departLane="entry_0" departPos="67.59" departSpeed="29.07" departDelay="20.60" arrival="238.40" arrivalLane="e0_1" arrivalPos="4800.00" arrivalSpeed="36.00" duration="151.40" routeLength="4932.41" waitingTime="0.00" waitingCount="0" stopTime="0.00" timeLoss="18.42" rerouteNo="0" devices="tripinfo_CAVToC.22 routing_CAVToC.22 ssm_CAVToC.22 toc_CAVToC.22 driverstateCAVToC.22" vType="vehLVOS17" speedFactor="1.03" vaporized=""/>
    <tripinfo id="CVToC.5" depart="13.70" departLane="entry_0" departPos="51.87" departSpeed="33.62" departDelay="0.00" arrival="239.00" arrivalLane="e0_0" arrivalPos="4800.00" arrivalSpeed="23.57" duration="225.30" routeLength="4948.13" waitingTime="0.00" waitingCount="0" stopTime="0.00" timeLoss="94.38" rerouteNo="0" devices="tripinfo_CVToC.5 routing_CVToC.5 ssm_CVToC.5 toc_CVToC.5 driverstateCVToC.5" vType="vehLVOS998" speedFactor="1.05" vaporized=""/>
    <tripinfo id="CVToC.6" depart="19.00" departLane="entry_0" departPos="41.25" departSpeed="31.10" departDelay="0.00" arrival="241.20" arrivalLane="e0_0" arrivalPos="4800.00" arrivalSpeed="25.03" duration="222.20" routeLength="4958.75" waitingTime="0.00" waitingCount="0" stopTime="0.00" timeLoss="62.73" rerouteNo="0" devices="tripinfo_CVToC.6 routing_CVToC.6 ssm_CVToC.6 toc_CVToC.6 driverstateCVToC.6" vType="vehLVOS345" speedFactor="0.86" vaporized=""/>
    <tripinfo id="CAVToC.24" depart="91.00" departLane="entry_1" departPos="70.91" departSpeed="33.37" departDelay="23.00" arrival="242.10" arrivalLane="e0_1" arrivalPos="4800.00" arrivalSpeed="39.20" duration="151.10" routeLength="4929.09" waitingTime="0.00" waitingCount="0" stopTime="0.00" timeLoss="25.55" rerouteNo="0" devices="tripinfo_CAVToC.24 routing_CAVToC.24 ssm_CAVToC.24 toc_CAVToC.24 driverstateCAVToC.24" vType="vehLVOS532" speedFactor="1.09" vaporized=""/>
    <tripinfo id="CAVToC.4" depart="20.60" departLane="entry_0" departPos="17.62" departSpeed="30.09" departDelay="0.20" arrival="242.50" arrivalLane="e0_0" arrivalPos="4800.00" arrivalSpeed="25.74" duration="221.90" routeLength="4982.38" waitingTime="0.00" waitingCount="0" stopTime="0.00" timeLoss="70.76" rerouteNo="0" devices="tripinfo_CAVToC.4 routing_CAVToC.4 ssm_CAVToC.4 toc_CAVToC.4 driverstateCAVToC.4" vType="vehLVOS975" speedFactor="0.91" vaporized=""/>
    <tripinfo id="CVToC.24" depart="82.30" departLane="entry_0" departPos="16.17" departSpeed="27.19" departDelay="22.00" arrival="243.70" arrivalLane="e0_1" arrivalPos="4800.00" arrivalSpeed="38.56" duration="161.40" routeLength="4983.83" waitingTime="0.00" waitingCount="0" stopTime="0.00" timeLoss="32.17" rerouteNo="0" devices="tripinfo_CVToC.24 routing_CVToC.24 ssm_CVToC.24 toc_CVToC.24 driverstateCVToC.24" vType="vehLVOS919" speedFactor="1.07" vaporized=""/>
    <tripinfo id="CVToC.7" depart="24.00" departLane="entry_0" departPos="44.85" departSpeed="28.02" departDelay="1.60" arrival="243.90" arrivalLane="e0_0" arrivalPos="4800.00" arrivalSpeed="28.01" duration="219.90" routeLength="4955.15" waitingTime="0.00" waitingCount="0" stopTime="0.00" timeLoss="69.55" rerouteNo="0" devices="tripinfo_CVToC.7 routing_CVToC.7 ssm_CVToC.7 toc_CVToC.7 driverstateCVToC.7" vType="vehLVOS930" speedFactor="0.91" vaporized=""/>
    <tripinfo id="CVToC.9" depart="25.90" departLane="entry_0" departPos="7.70" departSpeed="28.69" departDelay="1.10" arrival="245.10" arrivalLane="e0_0" arrivalPos="4800.00" arrivalSpeed="29.09" duration="219.20" routeLength="4992.30" waitingTime="0.00" waitingCount="0" stopTime="0.00" timeLoss="93.14" rerouteNo="0" devices="tripinfo_CVToC.9 routing_CVToC.9 ssm_CVToC.9 toc_CVToC.9 driverstateCVToC.9" vType="vehLVOS45" speedFactor="1.10" vaporized=""/>
    <tripinfo id="CVToC.10" depart="28.80" departLane="entry_0" departPos="12.65" departSpeed="27.94" departDelay="1.70" arrival="245.90" arrivalLane="e0_0" arrivalPos="4800.00" arrivalSpeed="28.82" duration="217.10" routeLength="4987.35" waitingTime="0.00" waitingCount="0" stopTime="0.00" timeLoss="76.95" rerouteNo="0" devices="tripinfo_CVToC.10 routing_CVToC.10 ssm_CVToC.10 toc_CVToC.10 driverstateCVToC.10" vType="vehLVOS597" speedFactor="0.99" vaporized=""/>
    <tripinfo id="CVToC.11" depart="31.30" departLane="entry_0" departPos="10.82" departSpeed="27.29" departDelay="1.20" arrival="247.20" arrivalLane="e0_0" arrivalPos="4800.00" arrivalSpeed="29.22" duration="215.90" routeLength="4989.18" waitingTime="0.00" waitingCount="0" stopTime="0.00" timeLoss="60.23" rerouteNo="0" devices="tripinfo_CVToC.11 routing_CVToC.11 ssm_CVToC.11 toc_CVToC.11 driverstateCVToC.11" vType="vehLVOS401" speedFactor="0.89" vaporized=""/>
    <tripinfo id="LV.23" depart="84.20" departLane="entry_1" departPos="2.00" departSpeed="32.57" departDelay="19.10" arrival="247.40" arrivalLane="e0_1" arrivalPos="4800.00" arrivalSpeed="32.46" duration="163.20" routeLength="4998.00" waitingTime="0.00" waitingCount="0" stopTime="0.00" timeLoss="9.65" rerouteNo="0" devices="tripinfo_LV.23 routing_LV.23 ssm_LV.23" vType="vehLVOS933" speedFactor="0.90" vaporized=""/>
    <tripinfo id="LV.19" depart="63.60" departLane="entry_0" departPos="51.00" departSpeed="33.58" departDelay="9.10" arrival="248.70" arrivalLane="e0_1" arrivalPos="4800.00" arrivalSpeed="33.57" duration="185.10" routeLength="4949.00" waitingTime="0.00" waitingCount="0" stopTime="0.00" timeLoss="37.68" rerouteNo="0" devices="tripinfo_LV.19 routing_LV.19 ssm_LV.19" vType="vehLVOS766" speedFactor="0.93" vaporized=""/>
    <tripinfo id="CAVToC.6" depart="34.40" departLane="entry_0" departPos="0.82" departSpeed="28.03" departDelay="0.80" arrival="249.00" arrivalLane="e0_0" arrivalPos="4800.00" arrivalSpeed="28.36" duration="214.60" routeLength="4999.18" waitingTime="0.00" waitingCount="0" stopTime="0.00" timeLoss="101.45" rerouteNo="0" devices="tripinfo_CAVToC.6 routing_CAVToC.6 ssm_CAVToC.6 toc_CAVToC.6 driverstateCAVToC.6" vType="vehLVOS299" speedFactor="1.22" vaporized=""/>
    <tripinfo id="CVToC.12" depart="37.70" departLane="entry_0" departPos="10.35" departSpeed="27.98" departDelay="7.00" arrival="251.10" arrivalLane="e0_0" arrivalPos="4800.00" arrivalSpeed="29.44" duration="213.40" routeLength="4989.65" waitingTime="0.00" waitingCount="0" stopTime="0.00" timeLoss="76.41" rerouteNo="0" devices="tripinfo_CVToC.12 routing_CVToC.12 ssm_CVToC.12 toc_CVToC.12 driverstateCVToC.12" vType="vehLVOS709" speedFactor="1.01" vaporized=""/>
    <tripinfo id="CVToC.15" depart="40.30" departLane="entry_0" departPos="7.72" departSpeed="28.09" departDelay="1.00" arrival="252.20" arrivalLane="e0_0" arrivalPos="4800.00" arrivalSpeed="30.69" duration="211.90" routeLength="4992.28" waitingTime="0.00" waitingCount="0" stopTime="0.00" timeLoss="68.05" rerouteNo="0" devices="tripinfo_CVToC.15 routing_CVToC.15 ssm_CVToC.15 toc_CVToC.15 driverstateCVToC.15" vType="vehLVOS976" speedFactor="0.96" vaporized=""/>
    <tripinfo id="CVToC.28" depart="91.60" departLane="entry_1" departPos="24.30" departSpeed="31.72" departDelay="21.30" arrival="252.30" arrivalLane="e0_1" arrivalPos="4800.00" arrivalSpeed="31.70" duration="160.70" routeLength="4975.70" waitingTime="0.00" waitingCount="0" stopTime="0.00" timeLoss="3.81" rerouteNo="0" devices="tripinfo_CVToC.28 routing_CVToC.28 ssm_CVToC.28 toc_CVToC.28 driverstateCVToC.28" vType="vehLVOS640" speedFactor="0.88" vaporized=""/>
    <tripinfo id="CAVToC.8" depart="43.40" departLane="entry_0" departPos="19.11" departSpeed="29.14" departDelay="2.90" arrival="253.60" arrivalLane="e0_0" arrivalPos="4800.00" arrivalSpeed="31.57" duration="210.20" routeLength="4980.89" waitingTime="0.00" waitingCount="0" stopTime="0.00" timeLoss="65.13" rerouteNo="0" devices="tripinfo_CAVToC.8 routing_CAVToC.8 ssm_CAVToC.8 toc_CAVToC.8 driverstateCAVToC.8" vType="vehLVOS848" speedFactor="0.95" vaporized=""/>
    <tripinfo id="LV.22" depart="96.30" departLane="entry_1" departPos="35.69" departSpeed="41.03" departDelay="33.10" arrival="254.20" arrivalLane="e0_1" arrivalPos="4800.00" arrivalSpeed="35.17" duration="157.90" routeLength="4964.31" waitingTime="0.00" waitingCount="0" stopTime="0.00" timeLoss="36.87" rerouteNo="0" devices="tripinfo_LV.22 routing_LV.22 ssm_LV.22" vType="vehLVOS974" speedFactor="1.14" vaporized=""/>