<?xml version="1.0" encoding="UTF-8"?>

<!-- generated on 09/23/20 16:25:50 by Eclipse SUMO Version 1.6.0
<configuration xmlns:xsi="http://www.w3.org/2001/XMLSchema-instance" xsi:noNamespaceSchemaLocation="http://sumo.dlr.de/xsd/sumoConfiguration.xsd">

    <input>
        <net-file value="scenario/UC5_1.net.xml"/>
        <route-files value="scenario/routes_trafficMix_0_trafficDemand_1_driverBehaviour_OS_seed_0.xml"/>
        <additional-files value="scenario/additionalsOutput_trafficMix_0_trafficDemand_1_driverBehaviour_OS_seed_0.xml,scenario/vTypesCAVToC_OS.add.xml,scenario/vTypesCVToC_OS.add.xml,scenario/vTypesLV_OS.add.xml,scenario/shapes.add.xml,scenario/view.add.xml"/>
    </input>

    <output>
        <tripinfo-output value="C:\Users\laborknecht\Aris\workspace\ma-branch\tor-distribution/outputs/simulations/DQN__2020-09-23_11-07-42__20200923-155324/tripinfo_4.xml"/>
    </output>

    <time>
        <step-length value="0.1"/>
    </time>

    <processing>
        <step-method.ballistic value="true"/>
        <ignore-route-errors value="true"/>
        <lanechange.duration value="2.5"/>
    </processing>

    <report>
        <no-step-log value="true"/>
    </report>

    <toc_device>
        <device.toc.ogNewTimeHeadway value="100"/>
        <device.toc.ogNewSpaceHeadway value="5"/>
        <device.toc.ogMaxDecel value="1"/>
        <device.toc.ogChangeRate value="1"/>
    </toc_device>

    <traci_server>
        <remote-port value="52365"/>
    </traci_server>

    <random_number>
        <seed value="1028"/>
    </random_number>

    <gui_only>
        <tracker-interval value="0.1"/>
    </gui_only>

</configuration>
-->

<tripinfos xmlns:xsi="http://www.w3.org/2001/XMLSchema-instance" xsi:noNamespaceSchemaLocation="http://sumo.dlr.de/xsd/tripinfo_file.xsd">
    <tripinfo id="CAVToC.0" depart="0.20" departLane="entry_1" departPos="199.90" departSpeed="28.35" departDelay="0.00" arrival="169.70" arrivalLane="e0_1" arrivalPos="4800.00" arrivalSpeed="28.33" duration="169.50" routeLength="4800.10" waitingTime="0.00" waitingCount="0" stopTime="0.00" timeLoss="0.14" rerouteNo="0" devices="tripinfo_CAVToC.0 routing_CAVToC.0 ssm_CAVToC.0 toc_CAVToC.0 driverstateCAVToC.0" vType="vehLVOS604" speedFactor="0.79" vaporized=""/>
    <tripinfo id="CVToC.0" depart="2.30" departLane="entry_1" departPos="182.66" departSpeed="29.18" departDelay="0.00" arrival="171.20" arrivalLane="e0_1" arrivalPos="4800.00" arrivalSpeed="31.65" duration="168.90" routeLength="4817.34" waitingTime="0.00" waitingCount="0" stopTime="0.00" timeLoss="33.74" rerouteNo="0" devices="tripinfo_CVToC.0 routing_CVToC.0 ssm_CVToC.0 toc_CVToC.0 driverstateCVToC.0" vType="vehLVOS424" speedFactor="0.99" vaporized=""/>
    <tripinfo id="CAVToC.1" depart="3.30" departLane="entry_0" departPos="199.90" departSpeed="35.90" departDelay="0.00" arrival="171.30" arrivalLane="e0_0" arrivalPos="4800.00" arrivalSpeed="30.85" duration="168.00" routeLength="4800.10" waitingTime="0.00" waitingCount="0" stopTime="0.00" timeLoss="34.23" rerouteNo="0" devices="tripinfo_CAVToC.1 routing_CAVToC.1 ssm_CAVToC.1 toc_CAVToC.1 driverstateCAVToC.1" vType="vehLVOS753" speedFactor="0.99" vaporized=""/>
    <tripinfo id="CVToC.2" depart="4.10" departLane="entry_0" departPos="165.29" departSpeed="30.10" departDelay="0.00" arrival="172.30" arrivalLane="e0_0" arrivalPos="4800.00" arrivalSpeed="30.08" duration="168.20" routeLength="4834.71" waitingTime="0.00" waitingCount="0" stopTime="0.00" timeLoss="7.58" rerouteNo="0" devices="tripinfo_CVToC.2 routing_CVToC.2 ssm_CVToC.2 toc_CVToC.2 driverstateCVToC.2" vType="vehLVOS819" speedFactor="0.83" vaporized=""/>
    <tripinfo id="CVToC.1" depart="3.00" departLane="entry_1" departPos="127.75" departSpeed="29.79" departDelay="0.00" arrival="173.50" arrivalLane="e0_1" arrivalPos="4800.00" arrivalSpeed="34.36" duration="170.50" routeLength="4872.25" waitingTime="0.00" waitingCount="0" stopTime="0.00" timeLoss="30.23" rerouteNo="0" devices="tripinfo_CVToC.1 routing_CVToC.1 ssm_CVToC.1 toc_CVToC.1 driverstateCVToC.1" vType="vehLVOS230" speedFactor="0.96" vaporized=""/>
    <tripinfo id="CAVToC.2" depart="3.40" departLane="entry_1" departPos="75.20" departSpeed="29.93" departDelay="0.00" arrival="175.10" arrivalLane="e0_1" arrivalPos="4800.00" arrivalSpeed="30.49" duration="171.70" routeLength="4924.80" waitingTime="0.00" waitingCount="0" stopTime="0.00" timeLoss="10.20" rerouteNo="0" devices="tripinfo_CAVToC.2 routing_CAVToC.2 ssm_CAVToC.2 toc_CAVToC.2 driverstateCAVToC.2" vType="vehLVOS461" speedFactor="0.84" vaporized=""/>
    <tripinfo id="CVToC.3" depart="4.50" departLane="entry_0" departPos="104.39" departSpeed="30.56" departDelay="0.00" arrival="176.10" arrivalLane="e0_0" arrivalPos="4800.00" arrivalSpeed="32.11" duration="171.60" routeLength="4895.61" waitingTime="0.00" waitingCount="0" stopTime="0.00" timeLoss="32.60" rerouteNo="0" devices="tripinfo_CVToC.3 routing_CVToC.3 ssm_CVToC.3 toc_CVToC.3 driverstateCVToC.3" vType="vehLVOS162" speedFactor="0.98" vaporized=""/>
    <tripinfo id="LV.1" depart="5.90" departLane="entry_1" departPos="30.29" departSpeed="37.34" departDelay="0.00" arrival="176.40" arrivalLane="e0_1" arrivalPos="4800.00" arrivalSpeed="33.31" duration="170.50" routeLength="4969.71" waitingTime="0.00" waitingCount="0" stopTime="0.00" timeLoss="37.39" rerouteNo="0" devices="tripinfo_LV.1 routing_LV.1 ssm_LV.1" vType="vehLVOS936" speedFactor="1.03" vaporized=""/>
    <tripinfo id="LV.0" depart="5.70" departLane="entry_0" departPos="73.24" departSpeed="35.18" departDelay="0.00" arrival="177.00" arrivalLane="e0_0" arrivalPos="4800.00" arrivalSpeed="33.01" duration="171.30" routeLength="4926.76" waitingTime="0.00" waitingCount="0" stopTime="0.00" timeLoss="31.27" rerouteNo="0" devices="tripinfo_LV.0 routing_LV.0 ssm_LV.0" vType="vehLVOS40" speedFactor="0.97" vaporized=""/>
    <tripinfo id="CVToC.5" depart="7.60" departLane="entry_1" departPos="29.58" departSpeed="29.24" departDelay="0.00" arrival="178.20" arrivalLane="e0_1" arrivalPos="4800.00" arrivalSpeed="29.21" duration="170.60" routeLength="4970.42" waitingTime="0.00" waitingCount="0" stopTime="0.00" timeLoss="0.57" rerouteNo="0" devices="tripinfo_CVToC.5 routing_CVToC.5 ssm_CVToC.5 toc_CVToC.5 driverstateCVToC.5" vType="vehLVOS424" speedFactor="0.81" vaporized=""/>
    <tripinfo id="CVToC.7" depart="9.60" departLane="entry_1" departPos="3.16" departSpeed="30.25" departDelay="0.60" arrival="179.10" arrivalLane="e0_1" arrivalPos="4800.00" arrivalSpeed="30.39" duration="169.50" routeLength="4996.84" waitingTime="0.00" waitingCount="0" stopTime="0.00" timeLoss="38.00" rerouteNo="0" devices="tripinfo_CVToC.7 routing_CVToC.7 ssm_CVToC.7 toc_CVToC.7 driverstateCVToC.7" vType="vehLVOS69" speedFactor="1.05" vaporized=""/>
    <tripinfo id="CVToC.4" depart="6.80" departLane="entry_0" departPos="39.45" departSpeed="34.61" departDelay="0.20" arrival="179.20" arrivalLane="e0_0" arrivalPos="4800.00" arrivalSpeed="30.39" duration="172.40" routeLength="4960.55" waitingTime="0.00" waitingCount="0" stopTime="0.00" timeLoss="29.76" rerouteNo="0" devices="tripinfo_CVToC.4 routing_CVToC.4 ssm_CVToC.4 toc_CVToC.4 driverstateCVToC.4" vType="vehLVOS821" speedFactor="0.96" vaporized=""/>
    <tripinfo id="CAVToC.5" depart="12.50" departLane="entry_1" departPos="3.38" departSpeed="31.08" departDelay="0.60" arrival="181.70" arrivalLane="e0_1" arrivalPos="4800.00" arrivalSpeed="34.34" duration="169.20" routeLength="4996.62" waitingTime="0.00" waitingCount="0" stopTime="0.00" timeLoss="40.19" rerouteNo="0" devices="tripinfo_CAVToC.5 routing_CAVToC.5 ssm_CAVToC.5 toc_CAVToC.5 driverstateCAVToC.5" vType="vehLVOS82" speedFactor="1.07" vaporized=""/>
    <tripinfo id="CVToC.8" depart="15.20" departLane="entry_1" departPos="6.75" departSpeed="31.57" departDelay="5.60" arrival="182.70" arrivalLane="e0_1" arrivalPos="4800.00" arrivalSpeed="34.82" duration="167.50" routeLength="4993.25" waitingTime="0.00" waitingCount="0" stopTime="0.00" timeLoss="31.61" rerouteNo="0" devices="tripinfo_CVToC.8 routing_CVToC.8 ssm_CVToC.8 toc_CVToC.8 driverstateCVToC.8" vType="vehLVOS813" speedFactor="1.02" vaporized=""/>
    <tripinfo id="CAVToC.3" depart="8.20" departLane="entry_0" departPos="6.43" departSpeed="34.52" departDelay="0.10" arrival="182.90" arrivalLane="e0_0" arrivalPos="4800.00" arrivalSpeed="34.55" duration="174.70" routeLength="4993.57" waitingTime="0.00" waitingCount="0" stopTime="0.00" timeLoss="39.35" rerouteNo="0" devices="tripinfo_CAVToC.3 routing_CAVToC.3 ssm_CAVToC.3 toc_CAVToC.3 driverstateCAVToC.3" vType="vehLVOS832" speedFactor="1.02" vaporized=""/>
    <tripinfo id="LV.3" depart="20.40" departLane="entry_1" departPos="1.74" departSpeed="42.58" departDelay="4.50" arrival="184.20" arrivalLane="e0_1" arrivalPos="4800.00" arrivalSpeed="36.34" duration="163.80" routeLength="4998.26" waitingTime="0.00" waitingCount="0" stopTime="0.00" timeLoss="46.39" rerouteNo="0" devices="tripinfo_LV.3 routing_LV.3 ssm_LV.3" vType="vehLVOS55" speedFactor="1.18" vaporized=""/>
    <tripinfo id="CAVToC.4" depart="10.60" departLane="entry_0" departPos="1.34" departSpeed="28.42" departDelay="1.50" arrival="184.70" arrivalLane="e0_0" arrivalPos="4800.00" arrivalSpeed="34.97" duration="174.10" routeLength="4998.66" waitingTime="0.00" waitingCount="0" stopTime="0.00" timeLoss="31.59" rerouteNo="0" devices="tripinfo_CAVToC.4 routing_CAVToC.4 ssm_CAVToC.4 toc_CAVToC.4 driverstateCAVToC.4" vType="vehLVOS225" speedFactor="0.97" vaporized=""/>
    <tripinfo id="CAVToC.6" depart="22.40" departLane="entry_1" departPos="1.05" departSpeed="36.57" departDelay="2.10" arrival="185.40" arrivalLane="e0_1" arrivalPos="4800.00" arrivalSpeed="34.38" duration="163.00" routeLength="4998.95" waitingTime="0.00" waitingCount="0" stopTime="0.00" timeLoss="37.00" rerouteNo="0" devices="tripinfo_CAVToC.6 routing_CAVToC.6 ssm_CAVToC.6 toc_CAVToC.6 driverstateCAVToC.6" vType="vehLVOS250" speedFactor="1.10" vaporized=""/>
    <tripinfo id="LV.2" depart="13.80" departLane="entry_0" departPos="2.89" departSpeed="34.54" departDelay="1.20" arrival="185.80" arrivalLane="e0_0" arrivalPos="4800.00" arrivalSpeed="34.50" duration="172.00" routeLength="4997.11" waitingTime="0.00" waitingCount="0" stopTime="0.00" timeLoss="27.25" rerouteNo="0" devices="tripinfo_LV.2 routing_LV.2 ssm_LV.2" vType="vehLVOS870" speedFactor="0.96" vaporized=""/>
    <tripinfo id="CAVToC.7" depart="23.50" departLane="entry_0" departPos="54.51" departSpeed="29.33" departDelay="0.00" arrival="187.00" arrivalLane="e0_1" arrivalPos="4800.00" arrivalSpeed="35.83" duration="163.50" routeLength="4945.49" waitingTime="0.00" waitingCount="0" stopTime="0.00" timeLoss="25.77" rerouteNo="0" devices="tripinfo_CAVToC.7 routing_CAVToC.7 ssm_CAVToC.7 toc_CAVToC.7 driverstateCAVToC.7" vType="vehLVOS121" speedFactor="0.99" vaporized=""/>
    <tripinfo id="CAVToC.9" depart="27.20" departLane="entry_1" departPos="13.29" departSpeed="30.13" departDelay="0.20" arrival="187.90" arrivalLane="e0_1" arrivalPos="4800.00" arrivalSpeed="35.02" duration="160.70" routeLength="4986.71" waitingTime="0.00" waitingCount="0" stopTime="0.00" timeLoss="18.43" rerouteNo="0" devices="tripinfo_CAVToC.9 routing_CAVToC.9 ssm_CAVToC.9 toc_CAVToC.9 driverstateCAVToC.9" vType="vehLVOS159" speedFactor="0.97" vaporized=""/>
    <tripinfo id="CVToC.6" depart="16.50" departLane="entry_0" departPos="2.07" departSpeed="32.69" departDelay="8.60" arrival="188.40" arrivalLane="e0_0" arrivalPos="4800.00" arrivalSpeed="33.23" duration="171.90" routeLength="4997.93" waitingTime="0.00" waitingCount="0" stopTime="0.00" timeLoss="50.15" rerouteNo="0" devices="tripinfo_CVToC.6 routing_CVToC.6 ssm_CVToC.6 toc_CVToC.6 driverstateCVToC.6" vType="vehLVOS879" speedFactor="1.14" vaporized=""/>
    <tripinfo id="CVToC.9" depart="19.80" departLane="entry_0" departPos="24.23" departSpeed="29.11" departDelay="1.20" arrival="190.20" arrivalLane="e0_0" arrivalPos="4800.00" arrivalSpeed="32.72" duration="170.40" routeLength="4975.77" waitingTime="0.00" waitingCount="0" stopTime="0.00" timeLoss="26.79" rerouteNo="0" devices="tripinfo_CVToC.9 routing_CVToC.9 ssm_CVToC.9 toc_CVToC.9 driverstateCVToC.9" vType="vehLVOS41" speedFactor="0.96" vaporized=""/>
    <tripinfo id="CAVToC.8" depart="24.20" departLane="entry_1" departPos="2.90" departSpeed="29.45" departDelay="0.30" arrival="194.10" arrivalLane="e0_0" arrivalPos="4800.00" arrivalSpeed="29.43" duration="169.90" routeLength="4997.10" waitingTime="0.00" waitingCount="0" stopTime="0.00" timeLoss="0.19" rerouteNo="0" devices="tripinfo_CAVToC.8 routing_CAVToC.8 ssm_CAVToC.8 toc_CAVToC.8 driverstateCAVToC.8" vType="vehLVOS938" speedFactor="0.82" vaporized=""/>
    <tripinfo id="CVToC.10" depart="25.90" departLane="entry_0" departPos="60.59" departSpeed="28.10" departDelay="0.00" arrival="206.10" arrivalLane="e0_0" arrivalPos="4800.00" arrivalSpeed="28.09" duration="180.20" routeLength="4939.41" waitingTime="0.00" waitingCount="0" stopTime="0.00" timeLoss="4.43" rerouteNo="0" devices="tripinfo_CVToC.10 routing_CVToC.10 ssm_CVToC.10 toc_CVToC.10 driverstateCVToC.10" vType="vehLVOS555" speedFactor="0.78" vaporized=""/>
    <tripinfo id="CAVToC.11" depart="29.20" departLane="entry_1" departPos="13.11" departSpeed="28.00" departDelay="0.00" arrival="207.70" arrivalLane="e0_1" arrivalPos="4800.00" arrivalSpeed="27.97" duration="178.50" routeLength="4986.89" waitingTime="0.00" waitingCount="0" stopTime="0.00" timeLoss="0.31" rerouteNo="0" devices="tripinfo_CAVToC.11 routing_CAVToC.11 ssm_CAVToC.11 toc_CAVToC.11 driverstateCAVToC.11" vType="vehLVOS127" speedFactor="0.78" vaporized=""/>
    <tripinfo id="CAVToC.12" depart="31.80" departLane="entry_1" departPos="4.35" departSpeed="29.04" departDelay="2.50" arrival="208.80" arrivalLane="e0_1" arrivalPos="4800.00" arrivalSpeed="30.25" duration="177.00" routeLength="4995.65" waitingTime="0.00" waitingCount="0" stopTime="0.00" timeLoss="43.05" rerouteNo="0" devices="tripinfo_CAVToC.12 routing_CAVToC.12 ssm_CAVToC.12 toc_CAVToC.12 driverstateCAVToC.12" vType="vehLVOS78" speedFactor="1.03" vaporized=""/>
    <tripinfo id="CAVToC.10" depart="28.10" departLane="entry_0" departPos="44.92" departSpeed="28.20" departDelay="0.60" arrival="209.60" arrivalLane="e0_0" arrivalPos="4800.00" arrivalSpeed="29.17" duration="181.50" routeLength="4955.08" waitingTime="0.00" waitingCount="0" stopTime="0.00" timeLoss="39.15" rerouteNo="0" devices="tripinfo_CAVToC.10 routing_CAVToC.10 ssm_CAVToC.10 toc_CAVToC.10 driverstateCAVToC.10" vType="vehLVOS211" speedFactor="0.96" vaporized=""/>
    <tripinfo id="CVToC.12" depart="34.20" departLane="entry_1" departPos="2.20" departSpeed="29.36" departDelay="4.90" arrival="209.60" arrivalLane="e0_1" arrivalPos="4800.00" arrivalSpeed="30.57" duration="175.40" routeLength="4997.80" waitingTime="0.00" waitingCount="0" stopTime="0.00" timeLoss="21.36" rerouteNo="0" devices="tripinfo_CVToC.12 routing_CVToC.12 ssm_CVToC.12 toc_CVToC.12 driverstateCVToC.12" vType="vehLVOS27" speedFactor="0.90" vaporized=""/>
    <tripinfo id="CVToC.11" depart="29.50" departLane="entry_0" departPos="5.66" departSpeed="28.62" departDelay="0.90" arrival="212.00" arrivalLane="e0_0" arrivalPos="4800.00" arrivalSpeed="32.56" duration="182.50" routeLength="4994.34" waitingTime="0.00" waitingCount="0" stopTime="0.00" timeLoss="43.19" rerouteNo="0" devices="tripinfo_CVToC.11 routing_CVToC.11 ssm_CVToC.11 toc_CVToC.11 driverstateCVToC.11" vType="vehLVOS743" speedFactor="0.99" vaporized=""/>
    <tripinfo id="CVToC.15" depart="37.50" departLane="entry_1" departPos="11.85" departSpeed="30.30" departDelay="4.50" arrival="212.20" arrivalLane="e0_1" arrivalPos="4800.00" arrivalSpeed="35.34" duration="174.70" routeLength="4988.15" waitingTime="0.00" waitingCount="0" stopTime="0.00" timeLoss="48.48" rerouteNo="0" devices="tripinfo_CVToC.15 routing_CVToC.15 ssm_CVToC.15 toc_CVToC.15 driverstateCVToC.15" vType="vehLVOS444" speedFactor="1.09" vaporized=""/>
    <tripinfo id="CVToC.14" depart="32.10" departLane="entry_0" departPos="6.78" departSpeed="26.63" departDelay="0.30" arrival="213.70" arrivalLane="e0_0" arrivalPos="4800.00" arrivalSpeed="31.53" duration="181.60" routeLength="4993.22" waitingTime="0.00" waitingCount="0" stopTime="0.00" timeLoss="33.10" rerouteNo="0" devices="tripinfo_CVToC.14 routing_CVToC.14 ssm_CVToC.14 toc_CVToC.14 driverstateCVToC.14" vType="vehLVOS328" speedFactor="0.93" vaporized=""/>
    <tripinfo id="CAVToC.13" depart="39.50" departLane="entry_1" departPos="2.93" departSpeed="30.36" departDelay="2.30" arrival="213.70" arrivalLane="e0_1" arrivalPos="4800.00" arrivalSpeed="31.52" duration="174.20" routeLength="4997.07" waitingTime="0.00" waitingCount="0" stopTime="0.00" timeLoss="15.87" rerouteNo="0" devices="tripinfo_CAVToC.13 routing_CAVToC.13 ssm_CAVToC.13 toc_CAVToC.13 driverstateCAVToC.13" vType="vehLVOS11" speedFactor="0.87" vaporized=""/>
    <tripinfo id="LV.7" depart="42.70" departLane="entry_1" departPos="7.35" departSpeed="33.61" departDelay="6.50" arrival="215.90" arrivalLane="e0_1" arrivalPos="4800.00" arrivalSpeed="33.60" duration="173.20" routeLength="4992.65" waitingTime="0.00" waitingCount="0" stopTime="0.00" timeLoss="24.64" rerouteNo="0" devices="tripinfo_LV.7 routing_LV.7 ssm_LV.7" vType="vehLVOS690" speedFactor="0.93" vaporized=""/>
    <tripinfo id="CVToC.13" depart="34.90" departLane="entry_0" departPos="6.04" departSpeed="26.94" departDelay="4.10" arrival="216.10" arrivalLane="e0_0" arrivalPos="4800.00" arrivalSpeed="33.98" duration="181.20" routeLength="4993.96" waitingTime="0.00" waitingCount="0" stopTime="0.00" timeLoss="35.83" rerouteNo="0" devices="tripinfo_CVToC.13 routing_CVToC.13 ssm_CVToC.13 toc_CVToC.13 driverstateCVToC.13" vType="vehLVOS582" speedFactor="0.95" vaporized=""/>
    <tripinfo id="CAVToC.14" depart="46.30" departLane="entry_1" departPos="54.85" departSpeed="32.63" departDelay="8.80" arrival="217.50" arrivalLane="e0_1" arrivalPos="4800.00" arrivalSpeed="32.87" duration="171.20" routeLength="4945.15" waitingTime="0.00" waitingCount="0" stopTime="0.00" timeLoss="20.99" rerouteNo="0" devices="tripinfo_CAVToC.14 routing_CAVToC.14 ssm_CAVToC.14 toc_CAVToC.14 driverstateCAVToC.14" vType="vehLVOS662" speedFactor="0.91" vaporized=""/>
    <tripinfo id="LV.6" depart="38.60" departLane="entry_0" departPos="22.61" departSpeed="31.52" departDelay="3.30" arrival="217.90" arrivalLane="e0_0" arrivalPos="4800.00" arrivalSpeed="31.46" duration="179.30" routeLength="4977.39" waitingTime="0.00" waitingCount="0" stopTime="0.00" timeLoss="21.32" rerouteNo="0" devices="tripinfo_LV.6 routing_LV.6 ssm_LV.6" vType="vehLVOS286" speedFactor="0.87" vaporized=""/>
    <tripinfo id="CVToC.19" depart="49.50" departLane="entry_1" departPos="73.55" departSpeed="32.79" departDelay="9.80" arrival="218.90" arrivalLane="e0_1" arrivalPos="4800.00" arrivalSpeed="35.23" duration="169.40" routeLength="4926.45" waitingTime="0.00" waitingCount="0" stopTime="0.00" timeLoss="43.95" rerouteNo="0" devices="tripinfo_CVToC.19 routing_CVToC.19 ssm_CVToC.19 toc_CVToC.19 driverstateCVToC.19" vType="vehLVOS795" speedFactor="1.09" vaporized=""/>
    <tripinfo id="CVToC.16" depart="40.70" departLane="entry_0" departPos="1.82" departSpeed="30.91" departDelay="4.70" arrival="219.80" arrivalLane="e0_0" arrivalPos="4800.00" arrivalSpeed="32.82" duration="179.10" routeLength="4998.18" waitingTime="0.00" waitingCount="0" stopTime="0.00" timeLoss="46.65" rerouteNo="0" devices="tripinfo_CVToC.16 routing_CVToC.16 ssm_CVToC.16 toc_CVToC.16 driverstateCVToC.16" vType="vehLVOS700" speedFactor="1.05" vaporized=""/>
    <tripinfo id="CAVToC.16" depart="50.70" departLane="entry_1" departPos="31.07" departSpeed="33.29" departDelay="8.30" arrival="220.70" arrivalLane="e0_1" arrivalPos="4800.00" arrivalSpeed="35.59" duration="170.00" routeLength="4968.93" waitingTime="0.00" waitingCount="0" stopTime="0.00" timeLoss="40.11" rerouteNo="0" devices="tripinfo_CAVToC.16 routing_CAVToC.16 ssm_CAVToC.16 toc_CAVToC.16 driverstateCAVToC.16" vType="vehLVOS921" speedFactor="1.06" vaporized=""/>
    <tripinfo id="CVToC.20" depart="43.90" departLane="entry_0" departPos="9.93" departSpeed="28.47" departDelay="2.50" arrival="221.30" arrivalLane="e0_0" arrivalPos="4800.00" arrivalSpeed="36.76" duration="177.40" routeLength="4990.07" waitingTime="0.00" waitingCount="0" stopTime="0.00" timeLoss="49.55" rerouteNo="0" devices="tripinfo_CVToC.20 routing_CVToC.20 ssm_CVToC.20 toc_CVToC.20 driverstateCVToC.20" vType="vehLVOS248" speedFactor="1.08" vaporized=""/>
    <tripinfo id="CAVToC.15" depart="52.00" departLane="entry_1" departPos="2.74" departSpeed="32.98" departDelay="9.90" arrival="221.80" arrivalLane="e0_1" arrivalPos="4800.00" arrivalSpeed="32.94" duration="169.80" routeLength="4997.26" waitingTime="0.00" waitingCount="0" stopTime="0.00" timeLoss="18.18" rerouteNo="0" devices="tripinfo_CAVToC.15 routing_CAVToC.15 ssm_CAVToC.15 toc_CAVToC.15 driverstateCAVToC.15" vType="vehLVOS489" speedFactor="0.91" vaporized=""/>
    <tripinfo id="CVToC.18" depart="48.00" departLane="entry_0" departPos="41.73" departSpeed="28.78" departDelay="8.50" arrival="222.60" arrivalLane="e0_0" arrivalPos="4800.00" arrivalSpeed="34.15" duration="174.60" routeLength="4958.27" waitingTime="0.00" waitingCount="0" stopTime="0.00" timeLoss="43.20" rerouteNo="0" devices="tripinfo_CVToC.18 routing_CVToC.18 ssm_CVToC.18 toc_CVToC.18 driverstateCVToC.18" vType="vehLVOS403" speedFactor="1.05" vaporized=""/>
    <tripinfo id="CVToC.21" depart="54.60" departLane="entry_1" departPos="5.04" departSpeed="33.38" departDelay="9.60" arrival="223.20" arrivalLane="e0_1" arrivalPos="4800.00" arrivalSpeed="36.12" duration="168.60" routeLength="4994.96" waitingTime="0.00" waitingCount="0" stopTime="0.00" timeLoss="35.20" rerouteNo="0" devices="tripinfo_CVToC.21 routing_CVToC.21 ssm_CVToC.21 toc_CVToC.21 driverstateCVToC.21" vType="vehLVOS236" speedFactor="1.04" vaporized=""/>
    <tripinfo id="CAVToC.17" depart="57.10" departLane="entry_1" departPos="9.17" departSpeed="33.42" departDelay="11.60" arrival="224.50" arrivalLane="e0_1" arrivalPos="4800.00" arrivalSpeed="35.98" duration="167.40" routeLength="4990.83" waitingTime="0.00" waitingCount="0" stopTime="0.00" timeLoss="29.00" rerouteNo="0" devices="tripinfo_CAVToC.17 routing_CAVToC.17 ssm_CAVToC.17 toc_CAVToC.17 driverstateCAVToC.17" vType="vehLVOS87" speedFactor="1.00" vaporized=""/>
    <tripinfo id="CVToC.17" depart="49.40" departLane="entry_0" departPos="6.40" departSpeed="29.25" departDelay="10.60" arrival="224.60" arrivalLane="e0_0" arrivalPos="4800.00" arrivalSpeed="35.97" duration="175.20" routeLength="4993.60" waitingTime="0.00" waitingCount="0" stopTime="0.00" timeLoss="36.35" rerouteNo="0" devices="tripinfo_CVToC.17 routing_CVToC.17 ssm_CVToC.17 toc_CVToC.17 driverstateCVToC.17" vType="vehLVOS292" speedFactor="1.00" vaporized=""/>
    <tripinfo id="CVToC.22" depart="53.70" departLane="entry_0" departPos="43.56" departSpeed="30.56" departDelay="8.60" arrival="228.00" arrivalLane="e0_1" arrivalPos="4800.00" arrivalSpeed="39.43" duration="174.30" routeLength="4956.44" waitingTime="0.00" waitingCount="0" stopTime="0.00" timeLoss="51.68" rerouteNo="0" devices="tripinfo_CVToC.22 routing_CVToC.22 ssm_CVToC.22 toc_CVToC.22 driverstateCVToC.22" vType="vehLVOS901" speedFactor="1.12" vaporized=""/>
    <tripinfo id="CAVToC.20" depart="60.40" departLane="entry_1" departPos="43.09" departSpeed="33.21" departDelay="8.00" arrival="229.30" arrivalLane="e0_1" arrivalPos="4800.00" arrivalSpeed="34.22" duration="168.90" routeLength="4956.91" waitingTime="0.00" waitingCount="0" stopTime="0.00" timeLoss="24.04" rerouteNo="0" devices="tripinfo_CAVToC.20 routing_CAVToC.20 ssm_CAVToC.20 toc_CAVToC.20 driverstateCAVToC.20" vType="vehLVOS348" speedFactor="0.95" vaporized=""/>
    <tripinfo id="CVToC.24" depart="55.30" departLane="entry_0" departPos="19.76" departSpeed="31.02" departDelay="9.20" arrival="229.60" arrivalLane="e0_0" arrivalPos="4800.00" arrivalSpeed="34.46" duration="174.30" routeLength="4980.24" waitingTime="0.00" waitingCount="0" stopTime="0.00" timeLoss="29.77" rerouteNo="0" devices="tripinfo_CVToC.24 routing_CVToC.24 ssm_CVToC.24 toc_CVToC.24 driverstateCVToC.24" vType="vehLVOS437" speedFactor="0.95" vaporized=""/>
    <tripinfo id="CAVToC.19" depart="63.20" departLane="entry_1" departPos="40.62" departSpeed="34.05" departDelay="13.50" arrival="231.60" arrivalLane="e0_1" arrivalPos="4800.00" arrivalSpeed="37.22" duration="168.40" routeLength="4959.38" waitingTime="0.00" waitingCount="0" stopTime="0.00" timeLoss="52.73" rerouteNo="0" devices="tripinfo_CAVToC.19 routing_CAVToC.19 ssm_CAVToC.19 toc_CAVToC.19 driverstateCAVToC.19" vType="vehLVOS153" speedFactor="1.19" vaporized=""/>
    <tripinfo id="LV.10" depart="64.10" departLane="entry_1" departPos="63.63" departSpeed="31.28" departDelay="10.90" arrival="233.00" arrivalLane="e0_1" arrivalPos="4800.00" arrivalSpeed="31.24" duration="168.90" routeLength="4936.37" waitingTime="0.00" waitingCount="0" stopTime="0.00" timeLoss="11.02" rerouteNo="0" devices="tripinfo_LV.10 routing_LV.10 ssm_LV.10" vType="vehLVOS517" speedFactor="0.87" vaporized=""/>
    <tripinfo id="CVToC.23" depart="57.90" departLane="entry_0" departPos="35.35" departSpeed="30.34" departDelay="12.70" arrival="235.00" arrivalLane="e0_0" arrivalPos="4800.00" arrivalSpeed="30.68" duration="177.10" routeLength="4964.65" waitingTime="0.00" waitingCount="0" stopTime="0.00" timeLoss="15.40" rerouteNo="0" devices="tripinfo_CVToC.23 routing_CVToC.23 ssm_CVToC.23 toc_CVToC.23 driverstateCVToC.23" vType="vehLVOS249" speedFactor="0.85" vaporized=""/>
    <tripinfo id="LV.11" depart="64.10" departLane="entry_1" departPos="18.58" departSpeed="30.23" departDelay="9.30" arrival="235.50" arrivalLane="e0_1" arrivalPos="4800.00" arrivalSpeed="30.19" duration="171.40" routeLength="4981.42" waitingTime="0.00" waitingCount="0" stopTime="0.00" timeLoss="6.56" rerouteNo="0" devices="tripinfo_LV.11 routing_LV.11 ssm_LV.11" vType="vehLVOS933" speedFactor="0.84" vaporized=""/>
    <tripinfo id="CVToC.25" depart="59.70" departLane="entry_0" departPos="5.28" departSpeed="31.14" departDelay="11.10" arrival="237.50" arrivalLane="e0_0" arrivalPos="4800.00" arrivalSpeed="32.76" duration="177.80" routeLength="4994.72" waitingTime="0.00" waitingCount="0" stopTime="0.00" timeLoss="52.54" rerouteNo="0" devices="tripinfo_CVToC.25 routing_CVToC.25 ssm_CVToC.25 toc_CVToC.25 driverstateCVToC.25" vType="vehLVOS13" speedFactor="1.10" vaporized=""/>
    <tripinfo id="CAVToC.21" depart="67.10" departLane="entry_1" departPos="28.35" departSpeed="30.26" departDelay="12.30" arrival="238.70" arrivalLane="e0_1" arrivalPos="4800.00" arrivalSpeed="33.84" duration="171.60" routeLength="4971.65" waitingTime="0.00" waitingCount="0" stopTime="0.00" timeLoss="31.89" rerouteNo="0" devices="tripinfo_CAVToC.21 routing_CAVToC.21 ssm_CAVToC.21 toc_CAVToC.21 driverstateCAVToC.21" vType="vehLVOS42" speedFactor="0.99" vaporized=""/>
    <tripinfo id="CVToC.27" depart="69.70" departLane="entry_1" departPos="24.28" departSpeed="31.27" departDelay="12.70" arrival="239.60" arrivalLane="e0_1" arrivalPos="4800.00" arrivalSpeed="35.13" duration="169.90" routeLength="4975.72" waitingTime="0.00" waitingCount="0" stopTime="0.00" timeLoss="42.53" rerouteNo="0" devices="tripinfo_CVToC.27 routing_CVToC.27 ssm_CVToC.27 toc_CVToC.27 driverstateCVToC.27" vType="vehLVOS60" speedFactor="1.08" vaporized=""/>
    <tripinfo id="CVToC.26" depart="71.40" departLane="entry_1" departPos="6.70" departSpeed="31.47" departDelay="15.60" arrival="241.00" arrivalLane="e0_1" arrivalPos="4800.00" arrivalSpeed="32.86" duration="169.60" routeLength="4993.30" waitingTime="0.00" waitingCount="0" stopTime="0.00" timeLoss="17.96" rerouteNo="0" devices="tripinfo_CVToC.26 routing_CVToC.26 ssm_CVToC.26 toc_CVToC.26 driverstateCVToC.26" vType="vehLVOS414" speedFactor="0.91" vaporized=""/>
    <tripinfo id="CAVToC.18" depart="62.60" departLane="entry_0" departPos="21.73" departSpeed="30.99" departDelay="13.10" arrival="241.10" arrivalLane="e0_0" arrivalPos="4800.00" arrivalSpeed="33.07" duration="178.50" routeLength="4978.27" waitingTime="0.00" waitingCount="0" stopTime="0.00" timeLoss="33.63" rerouteNo="0" devices="tripinfo_CAVToC.18 routing_CAVToC.18 ssm_CAVToC.18 toc_CAVToC.18 driverstateCAVToC.18" vType="vehLVOS935" speedFactor="0.95" vaporized=""/>
    <tripinfo id="CVToC.32" depart="70.70" departLane="entry_0" departPos="5.07" departSpeed="27.68" departDelay="8.20" arrival="242.30" arrivalLane="e0_1" arrivalPos="4800.00" arrivalSpeed="33.80" duration="171.60" routeLength="4994.93" waitingTime="0.00" waitingCount="0" stopTime="0.00" timeLoss="23.83" rerouteNo="0" devices="tripinfo_CVToC.32 routing_CVToC.32 ssm_CVToC.32 toc_CVToC.32 driverstateCVToC.32" vType="vehLVOS897" speedFactor="0.94" vaporized=""/>
    <tripinfo id="CVToC.29" depart="66.20" departLane="entry_0" departPos="45.84" departSpeed="31.16" departDelay="6.80" arrival="242.70" arrivalLane="e0_0" arrivalPos="4800.00" arrivalSpeed="34.57" duration="176.50" routeLength="4954.16" waitingTime="0.00" waitingCount="0" stopTime="0.00" timeLoss="46.90" rerouteNo="0" devices="tripinfo_CVToC.29 routing_CVToC.29 ssm_CVToC.29 toc_CVToC.29 driverstateCVToC.29" vType="vehLVOS58" speedFactor="1.06" vaporized=""/>
    <tripinfo id="CAVToC.22" depart="76.00" departLane="entry_1" departPos="74.09" departSpeed="31.99" departDelay="18.90" arrival="243.40" arrivalLane="e0_1" arrivalPos="4800.00" arrivalSpeed="35.99" duration="167.40" routeLength="4925.91" waitingTime="0.00" waitingCount="0" stopTime="0.00" timeLoss="33.19" rerouteNo="0" devices="tripinfo_CAVToC.22 routing_CAVToC.22 ssm_CAVToC.22 toc_CAVToC.22 driverstateCAVToC.22" vType="vehLVOS725" speedFactor="1.02" vaporized=""/>