<?xml version="1.0" encoding="UTF-8"?>

<!-- generated on Tue 12 May 2020 03:16:53 CEST by Eclipse SUMO GUI Version v1_5_0+0820-fb638dbcbf
<configuration xmlns:xsi="http://www.w3.org/2001/XMLSchema-instance" xsi:noNamespaceSchemaLocation="http://sumo.dlr.de/xsd/sumoConfiguration.xsd">

    <input>
        <net-file value="scenario/UC5_1.net.xml"/>
        <route-files value="scenario/routes_trafficMix_0_trafficDemand_1_driverBehaviour_OS_seed_0.xml"/>
        <additional-files value="scenario/additionalsOutput_trafficMix_0_trafficDemand_1_driverBehaviour_OS_seed_0.xml,scenario/vTypesCAVToC_OS.add.xml,scenario/vTypesCVToC_OS.add.xml,scenario/vTypesLV_OS.add.xml,scenario/shapes.add.xml,scenario/view.add.xml"/>
    </input>

    <time>
        <step-length value="0.1"/>
    </time>

    <processing>
        <step-method.ballistic value="true"/>
        <ignore-route-errors value="true"/>
        <lanechange.duration value="2.5"/>
    </processing>

    <report>
        <no-step-log value="true"/>
    </report>

    <toc_device>
        <device.toc.ogNewTimeHeadway value="100"/>
        <device.toc.ogNewSpaceHeadway value="5"/>
        <device.toc.ogMaxDecel value="1"/>
        <device.toc.ogChangeRate value="1"/>
    </toc_device>

    <traci_server>
        <remote-port value="39807"/>
    </traci_server>

    <gui_only>
        <tracker-interval value="0.1"/>
    </gui_only>

</configuration>
-->

<meandata xmlns:xsi="http://www.w3.org/2001/XMLSchema-instance" xsi:noNamespaceSchemaLocation="http://sumo.dlr.de/xsd/meandata_file.xsd">
    <interval begin="0.00" end="1.10" id="emissions">
        <edge id="e0" sampledSeconds="0.70" CO_abs="135.091287" CO2_abs="5815.482407" HC_abs="0.770559" PMx_abs="0.157885" NOx_abs="2.110475" fuel_abs="2.499847" electricity_abs="0"
            CO_normed="92.107696" CO2_normed="3965.101641" HC_normed="0.525381" PMx_normed="0.107649" NOx_normed="1.438961" fuel_normed="1.704441" electricity_normed="0"
            traveltime="131.56" CO_perVeh="25489.222107" CO2_perVeh="1097273.744625" HC_perVeh="145.390192" PMx_perVeh="29.789971" NOx_perVeh="398.207608" fuel_perVeh="471.674782" electricity_perVeh="0"/>
        <edge id="entry" sampledSeconds="0.14" CO_abs="27.082298" CO2_abs="1165.853354" HC_abs="0.154477" PMx_abs="0.031652" NOx_abs="0.423096" fuel_abs="0.501154" electricity_abs="0"
            CO_normed="443.164884" CO2_normed="19077.600333" HC_normed="2.527807" PMx_normed="0.517939" NOx_normed="6.923382" fuel_normed="8.200709" electricity_normed="0"
            traveltime="5.48" CO_perVeh="1062.050921" CO2_perVeh="45719.739359" HC_perVeh="6.057925" PMx_perVeh="1.241249" NOx_perVeh="16.591984" fuel_perVeh="19.653116" electricity_perVeh="0"/>
    </interval>
</meandata>
