<?xml version="1.0" encoding="UTF-8"?>

<!-- generated on Fri Jul 17 12:39:47 2020 by Eclipse SUMO Version v1_6_0+0553-a03471b
<configuration xmlns:xsi="http://www.w3.org/2001/XMLSchema-instance" xsi:noNamespaceSchemaLocation="http://sumo.dlr.de/xsd/sumoConfiguration.xsd">

    <input>
        <net-file value="scenario/UC5_1.net.xml"/>
        <route-files value="scenario/routes_trafficMix_0_trafficDemand_1_driverBehaviour_OS_seed_0.xml"/>
        <additional-files value="scenario/additionalsOutput_trafficMix_0_trafficDemand_1_driverBehaviour_OS_seed_0.xml,scenario/vTypesCAVToC_OS.add.xml,scenario/vTypesCVToC_OS.add.xml,scenario/vTypesLV_OS.add.xml,scenario/shapes.add.xml,scenario/view.add.xml"/>
    </input>

    <output>
        <tripinfo-output value="/home/noul_ar/workspace/tor-distribution/outputs/simulations/test4.zip_20200717-114640/tripinfo_6.xml"/>
    </output>

    <time>
        <step-length value="0.1"/>
    </time>

    <processing>
        <step-method.ballistic value="true"/>
        <ignore-route-errors value="true"/>
        <lanechange.duration value="2.5"/>
    </processing>

    <report>
        <no-step-log value="true"/>
    </report>

    <toc_device>
        <device.toc.ogNewTimeHeadway value="100"/>
        <device.toc.ogNewSpaceHeadway value="5"/>
        <device.toc.ogMaxDecel value="1"/>
        <device.toc.ogChangeRate value="1"/>
    </toc_device>

    <traci_server>
        <remote-port value="56643"/>
    </traci_server>

    <random_number>
        <seed value="1030"/>
    </random_number>

    <gui_only>
        <tracker-interval value="0.1"/>
    </gui_only>

</configuration>
-->

<tripinfos xmlns:xsi="http://www.w3.org/2001/XMLSchema-instance" xsi:noNamespaceSchemaLocation="http://sumo.dlr.de/xsd/tripinfo_file.xsd">
    <tripinfo id="CAVToC.1" depart="3.30" departLane="entry_1" departPos="83.45" departSpeed="36.49" departDelay="0.00" arrival="131.50" arrivalLane="e0_1" arrivalPos="4800.00" arrivalSpeed="39.01" duration="128.20" routeLength="4916.55" waitingTime="0.00" waitingCount="0" stopTime="0.00" timeLoss="2.13" rerouteNo="0" devices="tripinfo_CAVToC.1 routing_CAVToC.1 ssm_CAVToC.1 toc_CAVToC.1 driverstateCAVToC.1" vType="vehLVOS524" speedFactor="1.08" vaporized=""/>
    <tripinfo id="LV.1" depart="6.70" departLane="entry_1" departPos="134.40" departSpeed="39.39" departDelay="0.00" arrival="133.40" arrivalLane="e0_0" arrivalPos="4800.00" arrivalSpeed="39.39" duration="126.70" routeLength="4865.60" waitingTime="0.00" waitingCount="0" stopTime="0.00" timeLoss="3.11" rerouteNo="0" devices="tripinfo_LV.1 routing_LV.1 ssm_LV.1" vType="vehLVOS289" speedFactor="1.09" vaporized=""/>
    <tripinfo id="CAVToC.2" depart="6.70" departLane="entry_1" departPos="42.54" departSpeed="37.15" departDelay="0.00" arrival="134.80" arrivalLane="e0_1" arrivalPos="4800.00" arrivalSpeed="44.07" duration="128.10" routeLength="4957.46" waitingTime="0.00" waitingCount="0" stopTime="0.00" timeLoss="15.71" rerouteNo="0" devices="tripinfo_CAVToC.2 routing_CAVToC.2 ssm_CAVToC.2 toc_CAVToC.2 driverstateCAVToC.2" vType="vehLVOS54" speedFactor="1.22" vaporized=""/>
    <tripinfo id="LV.0" depart="2.10" departLane="entry_1" departPos="125.88" departSpeed="36.69" departDelay="0.00" arrival="135.30" arrivalLane="e0_0" arrivalPos="4800.00" arrivalSpeed="36.69" duration="133.20" routeLength="4874.12" waitingTime="0.00" waitingCount="0" stopTime="0.00" timeLoss="0.26" rerouteNo="0" devices="tripinfo_LV.0 routing_LV.0 ssm_LV.0" vType="vehLVOS158" speedFactor="1.02" vaporized=""/>
    <tripinfo id="CVToC.1" depart="10.00" departLane="entry_1" departPos="2.87" departSpeed="36.49" departDelay="0.00" arrival="141.40" arrivalLane="e0_1" arrivalPos="4800.00" arrivalSpeed="39.03" duration="131.40" routeLength="4997.13" waitingTime="0.00" waitingCount="0" stopTime="0.00" timeLoss="3.30" rerouteNo="0" devices="tripinfo_CVToC.1 routing_CVToC.1 ssm_CVToC.1 toc_CVToC.1 driverstateCVToC.1" vType="vehLVOS216" speedFactor="1.08" vaporized=""/>
    <tripinfo id="CAVToC.3" depart="6.90" departLane="entry_0" departPos="199.90" departSpeed="36.96" departDelay="0.00" arrival="143.00" arrivalLane="e0_1" arrivalPos="4800.00" arrivalSpeed="42.13" duration="136.10" routeLength="4800.10" waitingTime="0.00" waitingCount="0" stopTime="0.00" timeLoss="23.57" rerouteNo="0" devices="tripinfo_CAVToC.3 routing_CAVToC.3 ssm_CAVToC.3 toc_CAVToC.3 driverstateCAVToC.3" vType="vehLVOS235" speedFactor="1.18" vaporized=""/>
    <tripinfo id="CVToC.0" depart="8.60" departLane="entry_1" departPos="34.16" departSpeed="36.34" departDelay="0.00" arrival="143.00" arrivalLane="e0_0" arrivalPos="4800.00" arrivalSpeed="37.16" duration="134.40" routeLength="4965.84" waitingTime="0.00" waitingCount="0" stopTime="0.00" timeLoss="0.70" rerouteNo="0" devices="tripinfo_CVToC.0 routing_CVToC.0 ssm_CVToC.0 toc_CVToC.0 driverstateCVToC.0" vType="vehLVOS918" speedFactor="1.03" vaporized=""/>
    <tripinfo id="CAVToC.4" depart="7.40" departLane="entry_0" departPos="138.03" departSpeed="36.14" departDelay="0.00" arrival="147.80" arrivalLane="e0_0" arrivalPos="4800.00" arrivalSpeed="36.80" duration="140.40" routeLength="4861.97" waitingTime="0.00" waitingCount="0" stopTime="0.00" timeLoss="8.41" rerouteNo="0" devices="tripinfo_CAVToC.4 routing_CAVToC.4 ssm_CAVToC.4 toc_CAVToC.4 driverstateCAVToC.4" vType="vehLVOS268" speedFactor="1.02" vaporized=""/>
    <tripinfo id="CAVToC.5" depart="14.40" departLane="entry_1" departPos="1.18" departSpeed="34.40" departDelay="0.00" arrival="152.60" arrivalLane="e0_0" arrivalPos="4800.00" arrivalSpeed="37.33" duration="138.20" routeLength="4998.82" waitingTime="0.00" waitingCount="0" stopTime="0.00" timeLoss="4.35" rerouteNo="0" devices="tripinfo_CAVToC.5 routing_CAVToC.5 ssm_CAVToC.5 toc_CAVToC.5 driverstateCAVToC.5" vType="vehLVOS71" speedFactor="1.03" vaporized=""/>
    <tripinfo id="CVToC.5" depart="19.50" departLane="entry_0" departPos="2.64" departSpeed="29.30" departDelay="0.00" arrival="155.00" arrivalLane="e0_1" arrivalPos="4800.00" arrivalSpeed="38.19" duration="135.50" routeLength="4997.36" waitingTime="0.00" waitingCount="0" stopTime="0.00" timeLoss="4.62" rerouteNo="0" devices="tripinfo_CVToC.5 routing_CVToC.5 ssm_CVToC.5 toc_CVToC.5 driverstateCVToC.5" vType="vehLVOS515" speedFactor="1.06" vaporized=""/>
    <tripinfo id="CAVToC.0" depart="0.50" departLane="entry_1" departPos="199.90" departSpeed="30.92" departDelay="0.00" arrival="156.10" arrivalLane="e0_0" arrivalPos="4800.00" arrivalSpeed="30.84" duration="155.60" routeLength="4800.10" waitingTime="0.00" waitingCount="0" stopTime="0.00" timeLoss="0.31" rerouteNo="0" devices="tripinfo_CAVToC.0 routing_CAVToC.0 ssm_CAVToC.0 toc_CAVToC.0 driverstateCAVToC.0" vType="vehLVOS616" speedFactor="0.86" vaporized=""/>
    <tripinfo id="CVToC.3" depart="12.20" departLane="entry_1" departPos="8.52" departSpeed="33.94" departDelay="0.00" arrival="159.30" arrivalLane="e0_0" arrivalPos="4800.00" arrivalSpeed="33.94" duration="147.10" routeLength="4991.48" waitingTime="0.00" waitingCount="0" stopTime="0.00" timeLoss="0.01" rerouteNo="0" devices="tripinfo_CVToC.3 routing_CVToC.3 ssm_CVToC.3 toc_CVToC.3 driverstateCVToC.3" vType="vehLVOS578" speedFactor="0.94" vaporized=""/>
    <tripinfo id="CAVToC.9" depart="26.70" departLane="entry_1" departPos="62.83" departSpeed="34.04" departDelay="0.10" arrival="161.20" arrivalLane="e0_1" arrivalPos="4800.00" arrivalSpeed="38.32" duration="134.50" routeLength="4937.17" waitingTime="0.00" waitingCount="0" stopTime="0.00" timeLoss="6.11" rerouteNo="0" devices="tripinfo_CAVToC.9 routing_CAVToC.9 ssm_CAVToC.9 toc_CAVToC.9 driverstateCAVToC.9" vType="vehLVOS606" speedFactor="1.06" vaporized=""/>
    <tripinfo id="LV.2" depart="27.50" departLane="entry_0" departPos="0.76" departSpeed="43.85" departDelay="4.40" arrival="163.10" arrivalLane="e0_1" arrivalPos="4800.00" arrivalSpeed="42.49" duration="135.60" routeLength="4999.24" waitingTime="0.00" waitingCount="0" stopTime="0.00" timeLoss="21.51" rerouteNo="0" devices="tripinfo_LV.2 routing_LV.2 ssm_LV.2" vType="vehLVOS332" speedFactor="1.21" vaporized=""/>
    <tripinfo id="CVToC.7" depart="24.30" departLane="entry_1" departPos="70.71" departSpeed="31.91" departDelay="0.00" arrival="166.60" arrivalLane="e0_0" arrivalPos="4800.00" arrivalSpeed="34.62" duration="142.30" routeLength="4929.29" waitingTime="0.00" waitingCount="0" stopTime="0.00" timeLoss="0.47" rerouteNo="0" devices="tripinfo_CVToC.7 routing_CVToC.7 ssm_CVToC.7 toc_CVToC.7 driverstateCVToC.7" vType="vehLVOS545" speedFactor="0.96" vaporized=""/>
    <tripinfo id="LV.4" depart="37.70" departLane="entry_1" departPos="0.52" departSpeed="44.86" departDelay="3.70" arrival="166.90" arrivalLane="e0_1" arrivalPos="4800.00" arrivalSpeed="44.85" duration="129.20" routeLength="4999.48" waitingTime="0.00" waitingCount="0" stopTime="0.00" timeLoss="17.73" rerouteNo="0" devices="tripinfo_LV.4 routing_LV.4 ssm_LV.4" vType="vehLVOS832" speedFactor="1.24" vaporized=""/>
    <tripinfo id="CVToC.8" depart="28.40" departLane="entry_1" departPos="42.99" departSpeed="34.74" departDelay="0.00" arrival="168.60" arrivalLane="e0_0" arrivalPos="4800.00" arrivalSpeed="35.60" duration="140.20" routeLength="4957.01" waitingTime="0.00" waitingCount="0" stopTime="0.00" timeLoss="1.08" rerouteNo="0" devices="tripinfo_CVToC.8 routing_CVToC.8 ssm_CVToC.8 toc_CVToC.8 driverstateCVToC.8" vType="vehLVOS345" speedFactor="0.99" vaporized=""/>
    <tripinfo id="CAVToC.10" depart="33.10" departLane="entry_1" departPos="130.88" departSpeed="35.48" departDelay="0.00" arrival="171.20" arrivalLane="e0_0" arrivalPos="4800.00" arrivalSpeed="37.13" duration="138.10" routeLength="4869.12" waitingTime="0.00" waitingCount="0" stopTime="0.00" timeLoss="7.16" rerouteNo="0" devices="tripinfo_CAVToC.10 routing_CAVToC.10 ssm_CAVToC.10 toc_CAVToC.10 driverstateCAVToC.10" vType="vehLVOS284" speedFactor="1.03" vaporized=""/>
    <tripinfo id="LV.3" depart="31.80" departLane="entry_0" departPos="29.34" departSpeed="36.81" departDelay="0.00" arrival="176.50" arrivalLane="e0_0" arrivalPos="4800.00" arrivalSpeed="36.80" duration="144.70" routeLength="4970.66" waitingTime="0.00" waitingCount="0" stopTime="0.00" timeLoss="9.62" rerouteNo="0" devices="tripinfo_LV.3 routing_LV.3 ssm_LV.3" vType="vehLVOS542" speedFactor="1.02" vaporized=""/>
    <tripinfo id="CVToC.6" depart="24.40" departLane="entry_0" departPos="142.53" departSpeed="28.30" departDelay="0.30" arrival="177.90" arrivalLane="e0_1" arrivalPos="4800.00" arrivalSpeed="37.18" duration="153.50" routeLength="4857.47" waitingTime="0.00" waitingCount="0" stopTime="0.00" timeLoss="23.11" rerouteNo="0" devices="tripinfo_CVToC.6 routing_CVToC.6 ssm_CVToC.6 toc_CVToC.6 driverstateCVToC.6" vType="vehLVOS915" speedFactor="1.03" vaporized=""/>
    <tripinfo id="CAVToC.17" depart="41.60" departLane="entry_1" departPos="6.06" departSpeed="36.34" departDelay="0.70" arrival="181.10" arrivalLane="e0_1" arrivalPos="4800.00" arrivalSpeed="37.82" duration="139.50" routeLength="4993.94" waitingTime="0.00" waitingCount="0" stopTime="0.00" timeLoss="7.39" rerouteNo="0" devices="tripinfo_CAVToC.17 routing_CAVToC.17 ssm_CAVToC.17 toc_CAVToC.17 driverstateCAVToC.17" vType="vehLVOS293" speedFactor="1.05" vaporized=""/>
    <tripinfo id="CAVToC.14" depart="39.50" departLane="entry_1" departPos="6.48" departSpeed="36.35" departDelay="0.80" arrival="181.20" arrivalLane="e0_0" arrivalPos="4800.00" arrivalSpeed="36.84" duration="141.70" routeLength="4993.52" waitingTime="0.00" waitingCount="0" stopTime="0.00" timeLoss="6.66" rerouteNo="0" devices="tripinfo_CAVToC.14 routing_CAVToC.14 ssm_CAVToC.14 toc_CAVToC.14 driverstateCAVToC.14" vType="vehLVOS588" speedFactor="1.02" vaporized=""/>
    <tripinfo id="LV.5" depart="46.40" departLane="entry_1" departPos="6.31" departSpeed="41.00" departDelay="1.90" arrival="183.00" arrivalLane="e0_1" arrivalPos="4800.00" arrivalSpeed="40.97" duration="136.60" routeLength="4993.69" waitingTime="0.00" waitingCount="0" stopTime="0.00" timeLoss="14.70" rerouteNo="0" devices="tripinfo_LV.5 routing_LV.5 ssm_LV.5" vType="vehLVOS601" speedFactor="1.14" vaporized=""/>
    <tripinfo id="CAVToC.18" depart="43.80" departLane="entry_1" departPos="7.10" departSpeed="36.35" departDelay="1.80" arrival="183.90" arrivalLane="e0_0" arrivalPos="4800.00" arrivalSpeed="37.99" duration="140.10" routeLength="4992.90" waitingTime="0.00" waitingCount="0" stopTime="0.00" timeLoss="8.59" rerouteNo="0" devices="tripinfo_CAVToC.18 routing_CAVToC.18 ssm_CAVToC.18 toc_CAVToC.18 driverstateCAVToC.18" vType="vehLVOS375" speedFactor="1.05" vaporized=""/>
    <tripinfo id="CAVToC.12" depart="37.40" departLane="entry_0" departPos="75.31" departSpeed="34.95" departDelay="0.00" arrival="194.00" arrivalLane="e0_1" arrivalPos="4800.00" arrivalSpeed="37.37" duration="156.60" routeLength="4924.69" waitingTime="0.00" waitingCount="0" stopTime="0.00" timeLoss="25.26" rerouteNo="0" devices="tripinfo_CAVToC.12 routing_CAVToC.12 ssm_CAVToC.12 toc_CAVToC.12 driverstateCAVToC.12" vType="vehLVOS432" speedFactor="1.04" vaporized=""/>
    <tripinfo id="CAVToC.11" depart="36.70" departLane="entry_0" departPos="132.17" departSpeed="34.54" departDelay="0.10" arrival="194.20" arrivalLane="e0_0" arrivalPos="4800.00" arrivalSpeed="34.51" duration="157.50" routeLength="4867.83" waitingTime="0.00" waitingCount="0" stopTime="0.00" timeLoss="16.58" rerouteNo="0" devices="tripinfo_CAVToC.11 routing_CAVToC.11 ssm_CAVToC.11 toc_CAVToC.11 driverstateCAVToC.11" vType="vehLVOS980" speedFactor="0.96" vaporized=""/>
    <tripinfo id="CAVToC.13" depart="38.60" departLane="entry_0" departPos="45.48" departSpeed="34.41" departDelay="0.00" arrival="202.90" arrivalLane="e0_0" arrivalPos="4800.00" arrivalSpeed="34.39" duration="164.30" routeLength="4954.52" waitingTime="0.00" waitingCount="0" stopTime="0.00" timeLoss="20.26" rerouteNo="0" devices="tripinfo_CAVToC.13 routing_CAVToC.13 ssm_CAVToC.13 toc_CAVToC.13 driverstateCAVToC.13" vType="vehLVOS716" speedFactor="0.95" vaporized=""/>
    <tripinfo id="CVToC.9" depart="29.70" departLane="entry_0" departPos="18.62" departSpeed="34.92" departDelay="0.00" arrival="204.50" arrivalLane="e0_1" arrivalPos="4800.00" arrivalSpeed="34.90" duration="174.80" routeLength="4981.38" waitingTime="0.00" waitingCount="0" stopTime="0.00" timeLoss="32.14" rerouteNo="0" devices="tripinfo_CVToC.9 routing_CVToC.9 ssm_CVToC.9 toc_CVToC.9 driverstateCVToC.9" vType="vehLVOS18" speedFactor="0.97" vaporized=""/>
    <tripinfo id="CAVToC.8" depart="17.80" departLane="entry_0" departPos="38.49" departSpeed="28.38" departDelay="0.00" arrival="209.40" arrivalLane="e0_1" arrivalPos="4800.00" arrivalSpeed="31.64" duration="191.60" routeLength="4961.51" waitingTime="0.00" waitingCount="0" stopTime="0.00" timeLoss="34.95" rerouteNo="0" devices="tripinfo_CAVToC.8 routing_CAVToC.8 ssm_CAVToC.8 toc_CAVToC.8 driverstateCAVToC.8" vType="vehLVOS589" speedFactor="0.88" vaporized=""/>
    <tripinfo id="CAVToC.7" depart="16.70" departLane="entry_0" departPos="75.57" departSpeed="28.03" departDelay="0.00" arrival="211.10" arrivalLane="e0_1" arrivalPos="4800.00" arrivalSpeed="33.64" duration="194.40" routeLength="4924.43" waitingTime="0.00" waitingCount="0" stopTime="0.00" timeLoss="48.51" rerouteNo="0" devices="tripinfo_CAVToC.7 routing_CAVToC.7 ssm_CAVToC.7 toc_CAVToC.7 driverstateCAVToC.7" vType="vehLVOS499" speedFactor="0.94" vaporized=""/>
    <tripinfo id="CVToC.2" depart="11.30" departLane="entry_0" departPos="199.90" departSpeed="23.98" departDelay="0.00" arrival="211.60" arrivalLane="e0_0" arrivalPos="4800.00" arrivalSpeed="23.96" duration="200.30" routeLength="4800.10" waitingTime="0.00" waitingCount="0" stopTime="0.00" timeLoss="0.15" rerouteNo="0" devices="tripinfo_CVToC.2 routing_CVToC.2 ssm_CVToC.2 toc_CVToC.2 driverstateCVToC.2" vType="vehLVOS596" speedFactor="0.66" vaporized=""/>
    <tripinfo id="CVToC.4" depart="15.30" departLane="entry_0" departPos="199.90" departSpeed="26.06" departDelay="0.20" arrival="213.20" arrivalLane="e0_0" arrivalPos="4800.00" arrivalSpeed="26.28" duration="197.90" routeLength="4800.10" waitingTime="0.00" waitingCount="0" stopTime="0.00" timeLoss="78.30" rerouteNo="0" devices="tripinfo_CVToC.4 routing_CVToC.4 ssm_CVToC.4 toc_CVToC.4 driverstateCVToC.4" vType="vehLVOS926" speedFactor="1.11" vaporized=""/>
    <tripinfo id="CAVToC.6" depart="16.00" departLane="entry_0" departPos="133.08" departSpeed="27.32" departDelay="0.10" arrival="213.30" arrivalLane="e0_1" arrivalPos="4800.00" arrivalSpeed="32.59" duration="197.30" routeLength="4866.92" waitingTime="0.00" waitingCount="0" stopTime="0.00" timeLoss="68.99" rerouteNo="0" devices="tripinfo_CAVToC.6 routing_CAVToC.6 ssm_CAVToC.6 toc_CAVToC.6 driverstateCAVToC.6" vType="vehLVOS222" speedFactor="1.05" vaporized=""/>
    <tripinfo id="CAVToC.15" depart="39.60" departLane="entry_0" departPos="20.21" departSpeed="27.51" departDelay="0.20" arrival="229.40" arrivalLane="e0_1" arrivalPos="4800.00" arrivalSpeed="27.50" duration="189.80" routeLength="4979.79" waitingTime="0.00" waitingCount="0" stopTime="0.00" timeLoss="8.74" rerouteNo="0" devices="tripinfo_CAVToC.15 routing_CAVToC.15 ssm_CAVToC.15 toc_CAVToC.15 driverstateCAVToC.15" vType="vehLVOS610" speedFactor="0.76" vaporized=""/>
    <tripinfo id="CAVToC.20" depart="48.70" departLane="entry_1" departPos="28.99" departSpeed="34.26" departDelay="0.50" arrival="230.80" arrivalLane="e0_1" arrivalPos="4800.00" arrivalSpeed="29.97" duration="182.10" routeLength="4971.01" waitingTime="0.00" waitingCount="0" stopTime="0.00" timeLoss="36.97" rerouteNo="0" devices="tripinfo_CAVToC.20 routing_CAVToC.20 ssm_CAVToC.20 toc_CAVToC.20 driverstateCAVToC.20" vType="vehLVOS460" speedFactor="0.95" vaporized=""/>
    <tripinfo id="CAVToC.16" depart="42.10" departLane="entry_0" departPos="2.64" departSpeed="28.77" departDelay="1.90" arrival="231.00" arrivalLane="e0_0" arrivalPos="4800.00" arrivalSpeed="30.19" duration="188.90" routeLength="4997.36" waitingTime="0.00" waitingCount="0" stopTime="0.00" timeLoss="59.91" rerouteNo="0" devices="tripinfo_CAVToC.16 routing_CAVToC.16 ssm_CAVToC.16 toc_CAVToC.16 driverstateCAVToC.16" vType="vehLVOS678" speedFactor="1.07" vaporized=""/>
    <tripinfo id="CAVToC.22" depart="50.50" departLane="entry_1" departPos="9.36" departSpeed="34.70" departDelay="1.40" arrival="231.90" arrivalLane="e0_1" arrivalPos="4800.00" arrivalSpeed="31.49" duration="181.40" routeLength="4990.64" waitingTime="0.00" waitingCount="0" stopTime="0.00" timeLoss="48.29" rerouteNo="0" devices="tripinfo_CAVToC.22 routing_CAVToC.22 ssm_CAVToC.22 toc_CAVToC.22 driverstateCAVToC.22" vType="vehLVOS201" speedFactor="1.04" vaporized=""/>
    <tripinfo id="CAVToC.19" depart="45.50" departLane="entry_0" departPos="13.58" departSpeed="29.71" departDelay="1.10" arrival="232.70" arrivalLane="e0_0" arrivalPos="4800.00" arrivalSpeed="31.98" duration="187.20" routeLength="4986.42" waitingTime="0.00" waitingCount="0" stopTime="0.00" timeLoss="58.66" rerouteNo="0" devices="tripinfo_CAVToC.19 routing_CAVToC.19 ssm_CAVToC.19 toc_CAVToC.19 driverstateCAVToC.19" vType="vehLVOS642" speedFactor="1.07" vaporized=""/>
    <tripinfo id="CAVToC.25" depart="52.60" departLane="entry_1" departPos="12.87" departSpeed="31.43" departDelay="0.50" arrival="233.60" arrivalLane="e0_1" arrivalPos="4800.00" arrivalSpeed="31.39" duration="181.00" routeLength="4987.13" waitingTime="0.00" waitingCount="0" stopTime="0.00" timeLoss="22.25" rerouteNo="0" devices="tripinfo_CAVToC.25 routing_CAVToC.25 ssm_CAVToC.25 toc_CAVToC.25 driverstateCAVToC.25" vType="vehLVOS267" speedFactor="0.87" vaporized=""/>
    <tripinfo id="CAVToC.23" depart="55.20" departLane="entry_1" departPos="12.44" departSpeed="32.10" departDelay="5.90" arrival="235.50" arrivalLane="e0_1" arrivalPos="4800.00" arrivalSpeed="34.64" duration="180.30" routeLength="4987.56" waitingTime="0.00" waitingCount="0" stopTime="0.00" timeLoss="45.01" rerouteNo="0" devices="tripinfo_CAVToC.23 routing_CAVToC.23 ssm_CAVToC.23 toc_CAVToC.23 driverstateCAVToC.23" vType="vehLVOS568" speedFactor="1.02" vaporized=""/>
    <tripinfo id="CVToC.10" depart="48.10" departLane="entry_0" departPos="23.74" departSpeed="29.75" departDelay="0.00" arrival="236.40" arrivalLane="e0_0" arrivalPos="4800.00" arrivalSpeed="31.22" duration="188.30" routeLength="4976.26" waitingTime="0.00" waitingCount="0" stopTime="0.00" timeLoss="29.15" rerouteNo="0" devices="tripinfo_CVToC.10 routing_CVToC.10 ssm_CVToC.10 toc_CVToC.10 driverstateCVToC.10" vType="vehLVOS532" speedFactor="0.87" vaporized=""/>
    <tripinfo id="LV.8" depart="55.40" departLane="entry_0" departPos="53.27" departSpeed="30.38" departDelay="0.10" arrival="236.70" arrivalLane="e0_1" arrivalPos="4800.00" arrivalSpeed="30.36" duration="181.30" routeLength="4946.73" waitingTime="0.00" waitingCount="0" stopTime="0.00" timeLoss="18.43" rerouteNo="0" devices="tripinfo_LV.8 routing_LV.8 ssm_LV.8" vType="vehLVOS194" speedFactor="0.84" vaporized=""/>
    <tripinfo id="CVToC.11" depart="57.40" departLane="entry_1" departPos="3.87" departSpeed="32.43" departDelay="1.30" arrival="238.70" arrivalLane="e0_1" arrivalPos="4800.00" arrivalSpeed="34.69" duration="181.30" routeLength="4996.13" waitingTime="0.00" waitingCount="0" stopTime="0.00" timeLoss="39.55" rerouteNo="0" devices="tripinfo_CVToC.11 routing_CVToC.11 ssm_CVToC.11 toc_CVToC.11 driverstateCVToC.11" vType="vehLVOS568" speedFactor="0.98" vaporized=""/>
    <tripinfo id="CAVToC.21" depart="49.70" departLane="entry_0" departPos="1.74" departSpeed="29.84" departDelay="0.80" arrival="238.80" arrivalLane="e0_0" arrivalPos="4800.00" arrivalSpeed="30.87" duration="189.10" routeLength="4998.26" waitingTime="0.00" waitingCount="0" stopTime="0.00" timeLoss="27.33" rerouteNo="0" devices="tripinfo_CAVToC.21 routing_CAVToC.21 ssm_CAVToC.21 toc_CAVToC.21 driverstateCAVToC.21" vType="vehLVOS150" speedFactor="0.86" vaporized=""/>
    <tripinfo id="CAVToC.24" depart="52.40" departLane="entry_0" departPos="1.65" departSpeed="30.32" departDelay="0.80" arrival="240.10" arrivalLane="e0_0" arrivalPos="4800.00" arrivalSpeed="30.03" duration="187.70" routeLength="4998.35" waitingTime="0.00" waitingCount="0" stopTime="0.00" timeLoss="46.80" rerouteNo="0" devices="tripinfo_CAVToC.24 routing_CAVToC.24 ssm_CAVToC.24 toc_CAVToC.24 driverstateCAVToC.24" vType="vehLVOS321" speedFactor="0.98" vaporized=""/>
    <tripinfo id="CVToC.14" depart="60.20" departLane="entry_1" departPos="18.08" departSpeed="32.64" departDelay="0.90" arrival="240.80" arrivalLane="e0_1" arrivalPos="4800.00" arrivalSpeed="33.75" duration="180.60" routeLength="4981.92" waitingTime="0.00" waitingCount="0" stopTime="0.00" timeLoss="38.30" rerouteNo="0" devices="tripinfo_CVToC.14 routing_CVToC.14 ssm_CVToC.14 toc_CVToC.14 driverstateCVToC.14" vType="vehLVOS62" speedFactor="0.97" vaporized=""/>
    <tripinfo id="CVToC.12" depart="56.30" departLane="entry_0" departPos="8.26" departSpeed="30.61" departDelay="0.00" arrival="241.90" arrivalLane="e0_0" arrivalPos="4800.00" arrivalSpeed="30.94" duration="185.60" routeLength="4991.74" waitingTime="0.00" waitingCount="0" stopTime="0.00" timeLoss="41.17" rerouteNo="0" devices="tripinfo_CVToC.12 routing_CVToC.12 ssm_CVToC.12 toc_CVToC.12 driverstateCVToC.12" vType="vehLVOS18" speedFactor="0.96" vaporized=""/>
    <tripinfo id="CAVToC.26" depart="61.80" departLane="entry_1" departPos="1.14" departSpeed="31.97" departDelay="2.90" arrival="244.10" arrivalLane="e0_1" arrivalPos="4800.00" arrivalSpeed="31.91" duration="182.30" routeLength="4998.86" waitingTime="0.00" waitingCount="0" stopTime="0.00" timeLoss="25.86" rerouteNo="0" devices="tripinfo_CAVToC.26 routing_CAVToC.26 ssm_CAVToC.26 toc_CAVToC.26 driverstateCAVToC.26" vType="vehLVOS533" speedFactor="0.89" vaporized=""/>
    <tripinfo id="CVToC.13" depart="58.90" departLane="entry_0" departPos="7.46" departSpeed="30.52" departDelay="0.00" arrival="245.30" arrivalLane="e0_0" arrivalPos="4800.00" arrivalSpeed="32.04" duration="186.40" routeLength="4992.54" waitingTime="0.00" waitingCount="0" stopTime="0.00" timeLoss="52.97" rerouteNo="0" devices="tripinfo_CVToC.13 routing_CVToC.13 ssm_CVToC.13 toc_CVToC.13 driverstateCVToC.13" vType="vehLVOS243" speedFactor="1.04" vaporized=""/>
    <tripinfo id="CVToC.16" depart="64.20" departLane="entry_1" departPos="2.46" departSpeed="32.41" departDelay="3.60" arrival="246.00" arrivalLane="e0_1" arrivalPos="4800.00" arrivalSpeed="35.27" duration="181.80" routeLength="4997.54" waitingTime="0.00" waitingCount="0" stopTime="0.00" timeLoss="40.06" rerouteNo="0" devices="tripinfo_CVToC.16 routing_CVToC.16 ssm_CVToC.16 toc_CVToC.16 driverstateCVToC.16" vType="vehLVOS472" speedFactor="0.98" vaporized=""/>
    <tripinfo id="CVToC.15" depart="61.20" departLane="entry_0" departPos="0.92" departSpeed="29.93" departDelay="1.50" arrival="246.90" arrivalLane="e0_0" arrivalPos="4800.00" arrivalSpeed="34.55" duration="185.70" routeLength="4999.08" waitingTime="0.00" waitingCount="0" stopTime="0.00" timeLoss="47.67" rerouteNo="0" devices="tripinfo_CVToC.15 routing_CVToC.15 ssm_CVToC.15 toc_CVToC.15 driverstateCVToC.15" vType="vehLVOS424" speedFactor="1.00" vaporized=""/>
    <tripinfo id="CVToC.18" depart="67.60" departLane="entry_1" departPos="16.04" departSpeed="32.05" departDelay="5.00" arrival="247.40" arrivalLane="e0_1" arrivalPos="4800.00" arrivalSpeed="35.42" duration="179.80" routeLength="4983.96" waitingTime="0.00" waitingCount="0" stopTime="0.00" timeLoss="69.76" rerouteNo="0" devices="tripinfo_CVToC.18 routing_CVToC.18 ssm_CVToC.18 toc_CVToC.18 driverstateCVToC.18" vType="vehLVOS73" speedFactor="1.26" vaporized=""/>
    <tripinfo id="CAVToC.27" depart="65.10" departLane="entry_0" departPos="39.05" departSpeed="28.30" departDelay="0.50" arrival="248.50" arrivalLane="e0_0" arrivalPos="4800.00" arrivalSpeed="34.04" duration="183.40" routeLength="4960.95" waitingTime="0.00" waitingCount="0" stopTime="0.00" timeLoss="44.02" rerouteNo="0" devices="tripinfo_CAVToC.27 routing_CAVToC.27 ssm_CAVToC.27 toc_CAVToC.27 driverstateCAVToC.27" vType="vehLVOS819" speedFactor="0.99" vaporized=""/>
    <tripinfo id="LV.7" depart="72.30" departLane="entry_1" departPos="6.23" departSpeed="41.71" departDelay="17.80" arrival="248.60" arrivalLane="e0_1" arrivalPos="4800.00" arrivalSpeed="35.62" duration="176.30" routeLength="4993.77" waitingTime="0.00" waitingCount="0" stopTime="0.00" timeLoss="56.50" rerouteNo="0" devices="tripinfo_LV.7 routing_LV.7 ssm_LV.7" vType="vehLVOS237" speedFactor="1.16" vaporized=""/>
    <tripinfo id="LV.12" depart="72.40" departLane="entry_1" departPos="2.80" departSpeed="34.58" departDelay="2.20" arrival="250.10" arrivalLane="e0_1" arrivalPos="4800.00" arrivalSpeed="34.56" duration="177.70" routeLength="4997.20" waitingTime="0.00" waitingCount="0" stopTime="0.00" timeLoss="33.15" rerouteNo="0" devices="tripinfo_LV.12 routing_LV.12 ssm_LV.12" vType="vehLVOS25" speedFactor="0.96" vaporized=""/>
    <tripinfo id="CVToC.17" depart="67.50" departLane="entry_0" departPos="8.81" departSpeed="28.83" departDelay="6.20" arrival="252.10" arrivalLane="e0_0" arrivalPos="4800.00" arrivalSpeed="36.09" duration="184.60" routeLength="4991.19" waitingTime="0.00" waitingCount="0" stopTime="0.00" timeLoss="74.71" rerouteNo="0" devices="tripinfo_CVToC.17 routing_CVToC.17 ssm_CVToC.17 toc_CVToC.17 driverstateCVToC.17" vType="vehLVOS895" speedFactor="1.26" vaporized=""/>
    <tripinfo id="LV.11" depart="77.70" departLane="entry_1" departPos="8.82" departSpeed="36.80" departDelay="8.30" arrival="252.40" arrivalLane="e0_1" arrivalPos="4800.00" arrivalSpeed="35.31" duration="174.70" routeLength="4991.18" waitingTime="0.00" waitingCount="0" stopTime="0.00" timeLoss="38.99" rerouteNo="0" devices="tripinfo_LV.11 routing_LV.11 ssm_LV.11" vType="vehLVOS321" speedFactor="1.02" vaporized=""/>
    <tripinfo id="CVToC.20" depart="80.30" departLane="entry_1" departPos="19.69" departSpeed="36.10" departDelay="8.00" arrival="253.30" arrivalLane="e0_1" arrivalPos="4800.00" arrivalSpeed="36.03" duration="173.00" routeLength="4980.31" waitingTime="0.00" waitingCount="0" stopTime="0.00" timeLoss="44.81" rerouteNo="0" devices="tripinfo_CVToC.20 routing_CVToC.20 ssm_CVToC.20 toc_CVToC.20 driverstateCVToC.20" vType="vehLVOS880" speedFactor="1.08" vaporized=""/>
    <tripinfo id="CAVToC.31" depart="75.20" departLane="entry_1" departPos="34.54" departSpeed="30.57" departDelay="0.40" arrival="253.40" arrivalLane="e0_0" arrivalPos="4800.00" arrivalSpeed="30.57" duration="178.20" routeLength="4965.46" waitingTime="0.00" waitingCount="0" stopTime="0.00" timeLoss="15.76" rerouteNo="0" devices="tripinfo_CAVToC.31 routing_CAVToC.31 ssm_CAVToC.31 toc_CAVToC.31 driverstateCAVToC.31" vType="vehLVOS434" speedFactor="0.85" vaporized=""/>
    <tripinfo id="CAVToC.28" depart="71.40" departLane="entry_0" departPos="27.62" departSpeed="27.68" departDelay="3.90" arrival="254.80" arrivalLane="e0_0" arrivalPos="4800.00" arrivalSpeed="32.30" duration="183.40" routeLength="4972.38" waitingTime="0.00" waitingCount="0" stopTime="0.00" timeLoss="55.61" rerouteNo="0" devices="tripinfo_CAVToC.28 routing_CAVToC.28 ssm_CAVToC.28 toc_CAVToC.28 driverstateCAVToC.28" vType="vehLVOS575" speedFactor="1.08" vaporized=""/>
    <tripinfo id="CAVToC.33" depart="81.70" departLane="entry_1" departPos="0.45" departSpeed="34.39" departDelay="3.90" arrival="256.00" arrivalLane="e0_1" arrivalPos="4800.00" arrivalSpeed="34.34" duration="174.30" routeLength="4999.55" waitingTime="0.00" waitingCount="0" stopTime="0.00" timeLoss="28.88" rerouteNo="0" devices="tripinfo_CAVToC.33 routing_CAVToC.33 ssm_CAVToC.33 toc_CAVToC.33 driverstateCAVToC.33" vType="vehLVOS665" speedFactor="0.95" vaporized=""/>